 Entering Gaussian System, Link 0=g16
 Initial command:
 /opt/software/gaussian/g16_avx/g16/l1.exe "/users/yyb25113/CH934/4_Cores/Gau-2232830.inp" -scrdir="/users/yyb25113/CH934/4_Cores/"
 Entering Link 1 = /opt/software/gaussian/g16_avx/g16/l1.exe PID=   2232831.
  
 Copyright (c) 1988-2019, Gaussian, Inc.  All Rights Reserved.
  
 This is part of the Gaussian(R) 16 program.  It is based on
 the Gaussian(R) 09 system (copyright 2009, Gaussian, Inc.),
 the Gaussian(R) 03 system (copyright 2003, Gaussian, Inc.),
 the Gaussian(R) 98 system (copyright 1998, Gaussian, Inc.),
 the Gaussian(R) 94 system (copyright 1995, Gaussian, Inc.),
 the Gaussian 92(TM) system (copyright 1992, Gaussian, Inc.),
 the Gaussian 90(TM) system (copyright 1990, Gaussian, Inc.),
 the Gaussian 88(TM) system (copyright 1988, Gaussian, Inc.),
 the Gaussian 86(TM) system (copyright 1986, Carnegie Mellon
 University), and the Gaussian 82(TM) system (copyright 1983,
 Carnegie Mellon University). Gaussian is a federally registered
 trademark of Gaussian, Inc.
  
 This software contains proprietary and confidential information,
 including trade secrets, belonging to Gaussian, Inc.
  
 This software is provided under written license and may be
 used, copied, transmitted, or stored only in accord with that
 written license.
  
 The following legend is applicable only to US Government
 contracts under FAR:
  
                    RESTRICTED RIGHTS LEGEND
  
 Use, reproduction and disclosure by the US Government is
 subject to restrictions as set forth in subparagraphs (a)
 and (c) of the Commercial Computer Software - Restricted
 Rights clause in FAR 52.227-19.
  
 Gaussian, Inc.
 340 Quinnipiac St., Bldg. 40, Wallingford CT 06492
  
  
 ---------------------------------------------------------------
 Warning -- This program may not be used in any manner that
 competes with the business of Gaussian, Inc. or will provide
 assistance to any competitor of Gaussian, Inc.  The licensee
 of this program is prohibited from giving any competitor of
 Gaussian, Inc. access to this program.  By using this program,
 the user acknowledges that Gaussian, Inc. is engaged in the
 business of creating and licensing software in the field of
 computational chemistry and represents and warrants to the
 licensee that it is not a competitor of Gaussian, Inc. and that
 it will not use this program in any manner prohibited above.
 ---------------------------------------------------------------
  

 Cite this work as:
 Gaussian 16, Revision C.01,
 M. J. Frisch, G. W. Trucks, H. B. Schlegel, G. E. Scuseria, 
 M. A. Robb, J. R. Cheeseman, G. Scalmani, V. Barone, 
 G. A. Petersson, H. Nakatsuji, X. Li, M. Caricato, A. V. Marenich, 
 J. Bloino, B. G. Janesko, R. Gomperts, B. Mennucci, H. P. Hratchian, 
 J. V. Ortiz, A. F. Izmaylov, J. L. Sonnenberg, D. Williams-Young, 
 F. Ding, F. Lipparini, F. Egidi, J. Goings, B. Peng, A. Petrone, 
 T. Henderson, D. Ranasinghe, V. G. Zakrzewski, J. Gao, N. Rega, 
 G. Zheng, W. Liang, M. Hada, M. Ehara, K. Toyota, R. Fukuda, 
 J. Hasegawa, M. Ishida, T. Nakajima, Y. Honda, O. Kitao, H. Nakai, 
 T. Vreven, K. Throssell, J. A. Montgomery, Jr., J. E. Peralta, 
 F. Ogliaro, M. J. Bearpark, J. J. Heyd, E. N. Brothers, K. N. Kudin, 
 V. N. Staroverov, T. A. Keith, R. Kobayashi, J. Normand, 
 K. Raghavachari, A. P. Rendell, J. C. Burant, S. S. Iyengar, 
 J. Tomasi, M. Cossi, J. M. Millam, M. Klene, C. Adamo, R. Cammi, 
 J. W. Ochterski, R. L. Martin, K. Morokuma, O. Farkas, 
 J. B. Foresman, and D. J. Fox, Gaussian, Inc., Wallingford CT, 2019.
 
 ******************************************
 Gaussian 16:  ES64L-G16RevC.01  3-Jul-2019
                 4-Apr-2026 
 ******************************************
 %nprocshared=4
 Will use up to    4 processors via shared memory.
 %mem=18GB
 %chk=Molecule_ANTCEN.chk
 -------------------
 #p opt B3LYP/3-21g*
 -------------------
 1/18=20,19=15,26=3,38=1/1,3;
 2/9=110,12=2,17=6,18=5,40=1/2;
 3/5=5,7=1,11=2,25=1,30=1,71=1,74=-5/1,2,3;
 4//1;
 5/5=2,38=5/2;
 6/7=2,8=2,9=2,10=2,28=1/1;
 7//1,2,3,16;
 1/18=20,19=15,26=3/3(2);
 2/9=110/2;
 99//99;
 2/9=110/2;
 3/5=5,7=1,11=2,25=1,30=1,71=1,74=-5/1,2,3;
 4/5=5,16=3,69=1/1;
 5/5=2,38=5/2;
 7//1,2,3,16;
 1/18=20,19=15,26=3/3(-5);
 2/9=110/2;
 6/7=2,8=2,9=2,10=2,19=2,28=1/1;
 99/9=1/99;
 Leave Link    1 at Sat Apr  4 19:34:21 2026, MaxMem=  2415919104 cpu:               0.9 elap:               0.3
 (Enter /opt/software/gaussian/g16_avx/g16/l101.exe)
 ------------------
 Molecule_ANTCEN_4c
 ------------------
 Symbolic Z-matrix:
 Charge =  0 Multiplicity = 1
 C                    -1.5805    0.1638    3.3618 
 C                    -0.7706    0.9525    2.5812 
 C                    -0.3776    0.4849    1.2704 
 C                     0.4506    1.2641    0.4357 
 C                    -0.8325   -0.789     0.8266 
 C                    -1.6865   -1.5664    1.6869 
 C                    -2.0444   -1.0905    2.911 
 H                    -1.8844    0.6542    4.3386 
 H                    -0.3387    1.9601    2.9116 
 H                     0.7812    2.2725    0.7833 
 H                    -1.9451   -2.599     1.3163 
 H                    -2.6187   -1.9558    3.486 
 C                     0.8325    0.789    -0.8266 
 C                    -0.4506   -1.2641   -0.4357 
 C                     0.3776   -0.4849   -1.2704 
 C                     1.6865    1.5664   -1.6869 
 H                    -0.7812   -2.2725   -0.7833 
 C                     0.7706   -0.9525   -2.5812 
 C                     2.0444    1.0905   -2.911 
 H                     1.9451    2.599    -1.3163 
 C                     1.5805   -0.1638   -3.3618 
 H                     0.3387   -1.9601   -2.9116 
 H                     2.6187    1.9558   -3.486 
 H                     1.8844   -0.6542   -4.3386 
 
 ITRead=  0  0  0  0  0  0  0  0  0  0  0  0  0  0  0  0  0  0  0  0
 ITRead=  0  0  0  0
 MicOpt= -1 -1 -1 -1 -1 -1 -1 -1 -1 -1 -1 -1 -1 -1 -1 -1 -1 -1 -1 -1
 MicOpt= -1 -1 -1 -1
 NAtoms=     24 NQM=       24 NQMF=       0 NMMI=      0 NMMIF=      0
                NMic=       0 NMicF=      0.
                    Isotopes and Nuclear Properties:
 (Nuclear quadrupole moments (NQMom) in fm**2, nuclear magnetic moments (NMagM)
  in nuclear magnetons)

  Atom         1           2           3           4           5           6           7           8           9          10
 IAtWgt=          12          12          12          12          12          12          12           1           1           1
 AtmWgt=  12.0000000  12.0000000  12.0000000  12.0000000  12.0000000  12.0000000  12.0000000   1.0078250   1.0078250   1.0078250
 NucSpn=           0           0           0           0           0           0           0           1           1           1
 AtZEff=  -0.0000000  -0.0000000  -0.0000000  -0.0000000  -0.0000000  -0.0000000  -0.0000000  -0.0000000  -0.0000000  -0.0000000
 NQMom=    0.0000000   0.0000000   0.0000000   0.0000000   0.0000000   0.0000000   0.0000000   0.0000000   0.0000000   0.0000000
 NMagM=    0.0000000   0.0000000   0.0000000   0.0000000   0.0000000   0.0000000   0.0000000   2.7928460   2.7928460   2.7928460
 AtZNuc=   6.0000000   6.0000000   6.0000000   6.0000000   6.0000000   6.0000000   6.0000000   1.0000000   1.0000000   1.0000000

  Atom        11          12          13          14          15          16          17          18          19          20
 IAtWgt=           1           1          12          12          12          12           1          12          12           1
 AtmWgt=   1.0078250   1.0078250  12.0000000  12.0000000  12.0000000  12.0000000   1.0078250  12.0000000  12.0000000   1.0078250
 NucSpn=           1           1           0           0           0           0           1           0           0           1
 AtZEff=  -0.0000000  -0.0000000  -0.0000000  -0.0000000  -0.0000000  -0.0000000  -0.0000000  -0.0000000  -0.0000000  -0.0000000
 NQMom=    0.0000000   0.0000000   0.0000000   0.0000000   0.0000000   0.0000000   0.0000000   0.0000000   0.0000000   0.0000000
 NMagM=    2.7928460   2.7928460   0.0000000   0.0000000   0.0000000   0.0000000   2.7928460   0.0000000   0.0000000   2.7928460
 AtZNuc=   1.0000000   1.0000000   6.0000000   6.0000000   6.0000000   6.0000000   1.0000000   6.0000000   6.0000000   1.0000000

  Atom        21          22          23          24
 IAtWgt=          12           1           1           1
 AtmWgt=  12.0000000   1.0078250   1.0078250   1.0078250
 NucSpn=           0           1           1           1
 AtZEff=  -0.0000000  -0.0000000  -0.0000000  -0.0000000
 NQMom=    0.0000000   0.0000000   0.0000000   0.0000000
 NMagM=    0.0000000   2.7928460   2.7928460   2.7928460
 AtZNuc=   6.0000000   1.0000000   1.0000000   1.0000000
 Leave Link  101 at Sat Apr  4 19:34:22 2026, MaxMem=  2415919104 cpu:               1.4 elap:               0.4
 (Enter /opt/software/gaussian/g16_avx/g16/l103.exe)

 GradGradGradGradGradGradGradGradGradGradGradGradGradGradGradGradGradGrad
 Berny optimization.
 Initialization pass.
                           ----------------------------
                           !    Initial Parameters    !
                           ! (Angstroms and Degrees)  !
 --------------------------                            --------------------------
 ! Name  Definition              Value          Derivative Info.                !
 --------------------------------------------------------------------------------
 ! R1    R(1,2)                  1.3738         estimate D2E/DX2                !
 ! R2    R(1,7)                  1.4113         estimate D2E/DX2                !
 ! R3    R(1,8)                  1.1345         estimate D2E/DX2                !
 ! R4    R(2,3)                  1.4461         estimate D2E/DX2                !
 ! R5    R(2,9)                  1.145          estimate D2E/DX2                !
 ! R6    R(3,4)                  1.4106         estimate D2E/DX2                !
 ! R7    R(3,5)                  1.4236         estimate D2E/DX2                !
 ! R8    R(4,10)                 1.1167         estimate D2E/DX2                !
 ! R9    R(4,13)                 1.4018         estimate D2E/DX2                !
 ! R10   R(5,6)                  1.4401         estimate D2E/DX2                !
 ! R11   R(5,14)                 1.4018         estimate D2E/DX2                !
 ! R12   R(6,7)                  1.3612         estimate D2E/DX2                !
 ! R13   R(6,11)                 1.1272         estimate D2E/DX2                !
 ! R14   R(7,12)                 1.1871         estimate D2E/DX2                !
 ! R15   R(13,15)                1.4236         estimate D2E/DX2                !
 ! R16   R(13,16)                1.4401         estimate D2E/DX2                !
 ! R17   R(14,15)                1.4106         estimate D2E/DX2                !
 ! R18   R(14,17)                1.1167         estimate D2E/DX2                !
 ! R19   R(15,18)                1.4461         estimate D2E/DX2                !
 ! R20   R(16,19)                1.3612         estimate D2E/DX2                !
 ! R21   R(16,20)                1.1272         estimate D2E/DX2                !
 ! R22   R(18,21)                1.3738         estimate D2E/DX2                !
 ! R23   R(18,22)                1.145          estimate D2E/DX2                !
 ! R24   R(19,21)                1.4113         estimate D2E/DX2                !
 ! R25   R(19,23)                1.1871         estimate D2E/DX2                !
 ! R26   R(21,24)                1.1345         estimate D2E/DX2                !
 ! A1    A(2,1,7)              121.5021         estimate D2E/DX2                !
 ! A2    A(2,1,8)              113.5155         estimate D2E/DX2                !
 ! A3    A(7,1,8)              124.8325         estimate D2E/DX2                !
 ! A4    A(1,2,3)              119.315          estimate D2E/DX2                !
 ! A5    A(1,2,9)              124.3078         estimate D2E/DX2                !
 ! A6    A(3,2,9)              116.3339         estimate D2E/DX2                !
 ! A7    A(2,3,4)              121.1515         estimate D2E/DX2                !
 ! A8    A(2,3,5)              119.0169         estimate D2E/DX2                !
 ! A9    A(4,3,5)              119.8304         estimate D2E/DX2                !
 ! A10   A(3,4,10)             119.2388         estimate D2E/DX2                !
 ! A11   A(3,4,13)             120.3708         estimate D2E/DX2                !
 ! A12   A(10,4,13)            120.3785         estimate D2E/DX2                !
 ! A13   A(3,5,6)              119.0991         estimate D2E/DX2                !
 ! A14   A(3,5,14)             119.7983         estimate D2E/DX2                !
 ! A15   A(6,5,14)             121.102          estimate D2E/DX2                !
 ! A16   A(5,6,7)              120.2918         estimate D2E/DX2                !
 ! A17   A(5,6,11)             115.7335         estimate D2E/DX2                !
 ! A18   A(7,6,11)             123.7536         estimate D2E/DX2                !
 ! A19   A(1,7,6)              120.7665         estimate D2E/DX2                !
 ! A20   A(1,7,12)             130.7038         estimate D2E/DX2                !
 ! A21   A(6,7,12)             107.9349         estimate D2E/DX2                !
 ! A22   A(4,13,15)            119.7983         estimate D2E/DX2                !
 ! A23   A(4,13,16)            121.102          estimate D2E/DX2                !
 ! A24   A(15,13,16)           119.0991         estimate D2E/DX2                !
 ! A25   A(5,14,15)            120.3708         estimate D2E/DX2                !
 ! A26   A(5,14,17)            120.3785         estimate D2E/DX2                !
 ! A27   A(15,14,17)           119.2388         estimate D2E/DX2                !
 ! A28   A(13,15,14)           119.8304         estimate D2E/DX2                !
 ! A29   A(13,15,18)           119.0169         estimate D2E/DX2                !
 ! A30   A(14,15,18)           121.1515         estimate D2E/DX2                !
 ! A31   A(13,16,19)           120.2918         estimate D2E/DX2                !
 ! A32   A(13,16,20)           115.7335         estimate D2E/DX2                !
 ! A33   A(19,16,20)           123.7536         estimate D2E/DX2                !
 ! A34   A(15,18,21)           119.315          estimate D2E/DX2                !
 ! A35   A(15,18,22)           116.3339         estimate D2E/DX2                !
 ! A36   A(21,18,22)           124.3078         estimate D2E/DX2                !
 ! A37   A(16,19,21)           120.7665         estimate D2E/DX2                !
 ! A38   A(16,19,23)           107.9349         estimate D2E/DX2                !
 ! A39   A(21,19,23)           130.7038         estimate D2E/DX2                !
 ! A40   A(18,21,19)           121.5021         estimate D2E/DX2                !
 ! A41   A(18,21,24)           113.5155         estimate D2E/DX2                !
 ! A42   A(19,21,24)           124.8325         estimate D2E/DX2                !
 ! D1    D(7,1,2,3)             -0.3457         estimate D2E/DX2                !
 ! D2    D(7,1,2,9)           -177.8578         estimate D2E/DX2                !
 ! D3    D(8,1,2,3)           -176.0992         estimate D2E/DX2                !
 ! D4    D(8,1,2,9)              6.3887         estimate D2E/DX2                !
 ! D5    D(2,1,7,6)              0.8332         estimate D2E/DX2                !
 ! D6    D(2,1,7,12)           170.8519         estimate D2E/DX2                !
 ! D7    D(8,1,7,6)            176.0883         estimate D2E/DX2                !
 ! D8    D(8,1,7,12)           -13.893          estimate D2E/DX2                !
 ! D9    D(1,2,3,4)            179.8771         estimate D2E/DX2                !
 ! D10   D(1,2,3,5)             -0.5215         estimate D2E/DX2                !
 ! D11   D(9,2,3,4)             -2.4158         estimate D2E/DX2                !
 ! D12   D(9,2,3,5)            177.1856         estimate D2E/DX2                !
 ! D13   D(2,3,4,10)            -1.8923         estimate D2E/DX2                !
 ! D14   D(2,3,4,13)           179.3583         estimate D2E/DX2                !
 ! D15   D(5,3,4,10)           178.5095         estimate D2E/DX2                !
 ! D16   D(5,3,4,13)            -0.2399         estimate D2E/DX2                !
 ! D17   D(2,3,5,6)              0.9099         estimate D2E/DX2                !
 ! D18   D(2,3,5,14)          -179.3683         estimate D2E/DX2                !
 ! D19   D(4,3,5,6)           -179.4834         estimate D2E/DX2                !
 ! D20   D(4,3,5,14)             0.2385         estimate D2E/DX2                !
 ! D21   D(3,4,13,15)            0.2398         estimate D2E/DX2                !
 ! D22   D(3,4,13,16)         -179.4764         estimate D2E/DX2                !
 ! D23   D(10,4,13,15)        -178.4953         estimate D2E/DX2                !
 ! D24   D(10,4,13,16)           1.7886         estimate D2E/DX2                !
 ! D25   D(3,5,6,7)             -0.4489         estimate D2E/DX2                !
 ! D26   D(3,5,6,11)          -175.2468         estimate D2E/DX2                !
 ! D27   D(14,5,6,7)           179.833          estimate D2E/DX2                !
 ! D28   D(14,5,6,11)            5.0351         estimate D2E/DX2                !
 ! D29   D(3,5,14,15)           -0.2398         estimate D2E/DX2                !
 ! D30   D(3,5,14,17)          178.4953         estimate D2E/DX2                !
 ! D31   D(6,5,14,15)          179.4764         estimate D2E/DX2                !
 ! D32   D(6,5,14,17)           -1.7886         estimate D2E/DX2                !
 ! D33   D(5,6,7,1)             -0.4188         estimate D2E/DX2                !
 ! D34   D(5,6,7,12)          -172.4804         estimate D2E/DX2                !
 ! D35   D(11,6,7,1)           173.9437         estimate D2E/DX2                !
 ! D36   D(11,6,7,12)            1.8821         estimate D2E/DX2                !
 ! D37   D(4,13,15,14)          -0.2385         estimate D2E/DX2                !
 ! D38   D(4,13,15,18)         179.3683         estimate D2E/DX2                !
 ! D39   D(16,13,15,14)        179.4834         estimate D2E/DX2                !
 ! D40   D(16,13,15,18)         -0.9099         estimate D2E/DX2                !
 ! D41   D(4,13,16,19)        -179.833          estimate D2E/DX2                !
 ! D42   D(4,13,16,20)          -5.0351         estimate D2E/DX2                !
 ! D43   D(15,13,16,19)          0.4489         estimate D2E/DX2                !
 ! D44   D(15,13,16,20)        175.2468         estimate D2E/DX2                !
 ! D45   D(5,14,15,13)           0.2399         estimate D2E/DX2                !
 ! D46   D(5,14,15,18)        -179.3583         estimate D2E/DX2                !
 ! D47   D(17,14,15,13)       -178.5095         estimate D2E/DX2                !
 ! D48   D(17,14,15,18)          1.8923         estimate D2E/DX2                !
 ! D49   D(13,15,18,21)          0.5215         estimate D2E/DX2                !
 ! D50   D(13,15,18,22)       -177.1856         estimate D2E/DX2                !
 ! D51   D(14,15,18,21)       -179.8771         estimate D2E/DX2                !
 ! D52   D(14,15,18,22)          2.4158         estimate D2E/DX2                !
 ! D53   D(13,16,19,21)          0.4188         estimate D2E/DX2                !
 ! D54   D(13,16,19,23)        172.4804         estimate D2E/DX2                !
 ! D55   D(20,16,19,21)       -173.9437         estimate D2E/DX2                !
 ! D56   D(20,16,19,23)         -1.8821         estimate D2E/DX2                !
 ! D57   D(15,18,21,19)          0.3457         estimate D2E/DX2                !
 ! D58   D(15,18,21,24)        176.0992         estimate D2E/DX2                !
 ! D59   D(22,18,21,19)        177.8578         estimate D2E/DX2                !
 ! D60   D(22,18,21,24)         -6.3887         estimate D2E/DX2                !
 ! D61   D(16,19,21,18)         -0.8332         estimate D2E/DX2                !
 ! D62   D(16,19,21,24)       -176.0883         estimate D2E/DX2                !
 ! D63   D(23,19,21,18)       -170.8519         estimate D2E/DX2                !
 ! D64   D(23,19,21,24)         13.893          estimate D2E/DX2                !
 --------------------------------------------------------------------------------
 Trust Radius=3.00D-01 FncErr=1.00D-07 GrdErr=1.00D-06 EigMax=2.50D+02 EigMin=1.00D-04
 Number of steps in this run=    142 maximum allowed number of steps=    144.
 GradGradGradGradGradGradGradGradGradGradGradGradGradGradGradGradGradGrad

 Leave Link  103 at Sat Apr  4 19:34:22 2026, MaxMem=  2415919104 cpu:               0.1 elap:               0.0
 (Enter /opt/software/gaussian/g16_avx/g16/l202.exe)
                          Input orientation:                          
 ---------------------------------------------------------------------
 Center     Atomic      Atomic             Coordinates (Angstroms)
 Number     Number       Type             X           Y           Z
 ---------------------------------------------------------------------
      1          6           0       -1.580500    0.163800    3.361800
      2          6           0       -0.770600    0.952500    2.581200
      3          6           0       -0.377600    0.484900    1.270400
      4          6           0        0.450600    1.264100    0.435700
      5          6           0       -0.832500   -0.789000    0.826600
      6          6           0       -1.686500   -1.566400    1.686900
      7          6           0       -2.044400   -1.090500    2.911000
      8          1           0       -1.884400    0.654200    4.338600
      9          1           0       -0.338700    1.960100    2.911600
     10          1           0        0.781200    2.272500    0.783300
     11          1           0       -1.945100   -2.599000    1.316300
     12          1           0       -2.618700   -1.955800    3.486000
     13          6           0        0.832500    0.789000   -0.826600
     14          6           0       -0.450600   -1.264100   -0.435700
     15          6           0        0.377600   -0.484900   -1.270400
     16          6           0        1.686500    1.566400   -1.686900
     17          1           0       -0.781200   -2.272500   -0.783300
     18          6           0        0.770600   -0.952500   -2.581200
     19          6           0        2.044400    1.090500   -2.911000
     20          1           0        1.945100    2.599000   -1.316300
     21          6           0        1.580500   -0.163800   -3.361800
     22          1           0        0.338700   -1.960100   -2.911600
     23          1           0        2.618700    1.955800   -3.486000
     24          1           0        1.884400   -0.654200   -4.338600
 ---------------------------------------------------------------------
                    Distance matrix (angstroms):
                    1          2          3          4          5
     1  C    0.000000
     2  C    1.373798   0.000000
     3  C    2.433933   1.446131   0.000000
     4  C    3.728014   2.488291   1.410600   0.000000
     5  C    2.809728   2.472908   1.423627   2.452421   0.000000
     6  C    2.410419   2.825509   2.468709   3.760908   1.440063
     7  C    1.411273   2.430058   2.819872   4.230399   2.429882
     8  H    1.134454   2.101901   3.422420   4.588772   3.939983
     9  H    2.229673   1.144971   2.207094   2.690259   3.485486
    10  H    4.083247   2.717154   2.185314   1.116688   3.461024
    11  H    3.456887   3.948743   3.459711   4.630159   2.180318
    12  H    2.363470   3.562632   3.986029   5.393764   3.409449
    13  C    4.874027   3.769584   2.440129   1.401773   2.827610
    14  C    4.211482   3.757313   2.444403   2.821931   1.401773
    15  C    5.070724   4.268408   2.822500   2.444403   2.440129
    16  C    6.174945   4.962952   3.765073   2.474725   4.267429
    17  H    4.874043   4.660536   3.461767   3.938379   2.189790
    18  C    6.487915   5.714429   4.268408   3.757313   3.769584
    19  C    7.303882   6.173130   4.870004   3.710894   5.077276
    20  H    6.343869   5.027573   4.068829   2.661765   4.877051
    21  C    7.436803   6.487915   5.070724   4.211482   4.874027
    22  H    6.895638   6.315428   4.896962   4.648914   4.088682
    23  H    8.230244   7.021743   5.810740   4.534185   6.167919
    24  H    8.483562   7.583808   6.154273   5.341310   5.837723
                    6          7          8          9         10
     6  C    0.000000
     7  C    1.361247   0.000000
     8  H    3.464353   2.260004   0.000000
     9  H    3.968962   3.495078   2.476064   0.000000
    10  H    4.652224   4.880665   4.729109   2.425166   0.000000
    11  H    1.127156   2.197385   4.440866   5.090275   5.607880
    12  H    2.063344   1.187093   2.842222   4.567560   6.061553
    13  C    4.267429   5.077276   5.837723   4.088682   2.189790
    14  C    2.474725   3.710894   5.341310   4.648914   3.938379
    15  C    3.765073   4.870004   6.154273   4.896962   3.461767
    16  C    5.707372   6.489947   7.063291   5.040103   2.723974
    17  H    2.723974   4.079295   6.001373   5.635867   5.054934
    18  C    4.962952   6.173130   7.583808   6.315428   4.660536
    19  C    6.489947   7.441151   8.257271   6.351224   4.079295
    20  H    6.289538   6.884663   7.101071   4.847584   2.422723
    21  C    6.174945   7.303882   8.483562   6.895638   4.874043
    22  H    5.040103   6.351224   8.021355   7.052411   5.635867
    23  H    7.596021   8.482102   9.121208   7.048086   4.658715
    24  H    7.063291   8.257271   9.550370   8.021355   6.001373
                   11         12         13         14         15
    11  H    0.000000
    12  H    2.361153   0.000000
    13  C    4.877051   6.167919   0.000000
    14  C    2.661765   4.534185   2.452421   0.000000
    15  C    4.068829   5.810740   1.423627   1.410600   0.000000
    16  C    6.289538   7.596021   1.440063   3.760908   2.468709
    17  H    2.422723   4.658715   3.461024   1.116688   2.185314
    18  C    5.027573   7.021743   2.472908   2.488291   1.446131
    19  C    6.884663   8.482102   2.429882   4.230399   2.819872
    20  H    7.005958   8.039686   2.180318   4.630159   3.459711
    21  C    6.343869   8.230244   2.809728   3.728014   2.433933
    22  H    4.847584   7.048086   3.485486   2.690259   2.207094
    23  H    8.039686   9.557184   3.409449   5.393764   3.986029
    24  H    7.101071   9.121208   3.939983   4.588772   3.422420
                   16         17         18         19         20
    16  C    0.000000
    17  H    4.652224   0.000000
    18  C    2.825509   2.717154   0.000000
    19  C    1.361247   4.880665   2.430058   0.000000
    20  H    1.127156   5.607880   3.948743   2.197385   0.000000
    21  C    2.410419   4.083247   1.373798   1.411273   3.456887
    22  H    3.968962   2.425166   1.144971   3.495078   5.090275
    23  H    2.063344   6.061553   3.562632   1.187093   2.361153
    24  H    3.464353   4.729109   2.101901   2.260004   4.440866
                   21         22         23         24
    21  C    0.000000
    22  H    2.229673   0.000000
    23  H    2.363470   4.567560   0.000000
    24  H    1.134454   2.476064   2.842222   0.000000
 Stoichiometry    C14H10
 Framework group  CI[X(C14H10)]
 Deg. of freedom    33
 Full point group                 CI      NOp   2
 Largest Abelian subgroup         CI      NOp   2
 Largest concise Abelian subgroup CI      NOp   2
                         Standard orientation:                         
 ---------------------------------------------------------------------
 Center     Atomic      Atomic             Coordinates (Angstroms)
 Number     Number       Type             X           Y           Z
 ---------------------------------------------------------------------
      1          6           0       -1.580500    0.163800    3.361800
      2          6           0       -0.770600    0.952500    2.581200
      3          6           0       -0.377600    0.484900    1.270400
      4          6           0        0.450600    1.264100    0.435700
      5          6           0       -0.832500   -0.789000    0.826600
      6          6           0       -1.686500   -1.566400    1.686900
      7          6           0       -2.044400   -1.090500    2.911000
      8          1           0       -1.884400    0.654200    4.338600
      9          1           0       -0.338700    1.960100    2.911600
     10          1           0        0.781200    2.272500    0.783300
     11          1           0       -1.945100   -2.599000    1.316300
     12          1           0       -2.618700   -1.955800    3.486000
     13          6           0        0.832500    0.789000   -0.826600
     14          6           0       -0.450600   -1.264100   -0.435700
     15          6           0        0.377600   -0.484900   -1.270400
     16          6           0        1.686500    1.566400   -1.686900
     17          1           0       -0.781200   -2.272500   -0.783300
     18          6           0        0.770600   -0.952500   -2.581200
     19          6           0        2.044400    1.090500   -2.911000
     20          1           0        1.945100    2.599000   -1.316300
     21          6           0        1.580500   -0.163800   -3.361800
     22          1           0        0.338700   -1.960100   -2.911600
     23          1           0        2.618700    1.955800   -3.486000
     24          1           0        1.884400   -0.654200   -4.338600
 ---------------------------------------------------------------------
 Rotational constants (GHZ):           2.1147949           0.4533604           0.3733650
 Leave Link  202 at Sat Apr  4 19:34:22 2026, MaxMem=  2415919104 cpu:               0.0 elap:               0.0
 (Enter /opt/software/gaussian/g16_avx/g16/l301.exe)
 Standard basis: 3-21G* (6D, 7F)
 Ernie: Thresh=  0.10000D-02 Tol=  0.10000D-05 Strict=F.
 There are    73 symmetry adapted cartesian basis functions of AG  symmetry.
 There are    73 symmetry adapted cartesian basis functions of AU  symmetry.
 There are    73 symmetry adapted basis functions of AG  symmetry.
 There are    73 symmetry adapted basis functions of AU  symmetry.
   146 basis functions,   240 primitive gaussians,   146 cartesian basis functions
    47 alpha electrons       47 beta electrons
       nuclear repulsion energy       763.6213758328 Hartrees.
 IExCor=  402 DFT=T Ex+Corr=B3LYP ExCW=0 ScaHFX=  0.200000
 ScaDFX=  0.800000  0.720000  1.000000  0.810000 ScalE2=  1.000000  1.000000
 IRadAn=      5 IRanWt=     -1 IRanGd=            0 ICorTp=0 IEmpDi=  4
 NAtoms=   24 NActive=   24 NUniq=   12 SFac= 4.00D+00 NAtFMM=   60 NAOKFM=F Big=F
 Integral buffers will be    131072 words long.
 Raffenetti 2 integral format.
 Two-electron integral symmetry is turned on.
 Leave Link  301 at Sat Apr  4 19:34:22 2026, MaxMem=  2415919104 cpu:               0.2 elap:               0.1
 (Enter /opt/software/gaussian/g16_avx/g16/l302.exe)
 NPDir=0 NMtPBC=     1 NCelOv=     1 NCel=       1 NClECP=     1 NCelD=      1
         NCelK=      1 NCelE2=     1 NClLst=     1 CellRange=     0.0.
 One-electron integrals computed using PRISM.
 One-electron integral symmetry used in STVInt
 NBasis=   146 RedAO= T EigKep=  9.42D-04  NBF=    73    73
 NBsUse=   146 1.00D-06 EigRej= -1.00D+00 NBFU=    73    73
 Precomputing XC quadrature grid using
 IXCGrd= 4 IRadAn=           5 IRanWt=          -1 IRanGd=           0 AccXCQ= 0.00D+00.
 Generated NRdTot=       0 NPtTot=           0 NUsed=           0 NTot=          32
 NSgBfM=   145   145   145   145   145 MxSgAt=    24 MxSgA2=    24.
 Leave Link  302 at Sat Apr  4 19:34:22 2026, MaxMem=  2415919104 cpu:               1.2 elap:               0.3
 (Enter /opt/software/gaussian/g16_avx/g16/l303.exe)
 DipDrv:  MaxL=1.
 Leave Link  303 at Sat Apr  4 19:34:22 2026, MaxMem=  2415919104 cpu:               0.1 elap:               0.0
 (Enter /opt/software/gaussian/g16_avx/g16/l401.exe)
 ExpMin= 1.83D-01 ExpMax= 1.72D+02 ExpMxC= 1.72D+02 IAcc=3 IRadAn=         5 AccDes= 0.00D+00
 Harris functional with IExCor=  402 and IRadAn=       5 diagonalized for initial guess.
 HarFok:  IExCor=  402 AccDes= 0.00D+00 IRadAn=         5 IDoV= 1 UseB2=F ITyADJ=14
 ICtDFT=  3500011 ScaDFX=  1.000000  1.000000  1.000000  1.000000
 FoFCou: FMM=F IPFlag=           0 FMFlag=      100000 FMFlg1=           0
         NFxFlg=           0 DoJE=T BraDBF=F KetDBF=T FulRan=T
         wScrn=  0.000000 ICntrl=       500 IOpCl=  0 I1Cent=   200000004 NGrid=           0
         NMat0=    1 NMatS0=      1 NMatT0=    0 NMatD0=    1 NMtDS0=    0 NMtDT0=    0
 Petite list used in FoFCou.
 Harris En= -536.415681710373    
 JPrj=0 DoOrth=F DoCkMO=F.
 Initial guess orbital symmetries:
       Occupied  (AU) (AG) (AU) (AG) (AU) (AG) (AG) (AU) (AG) (AU)
                 (AU) (AG) (AU) (AG) (AG) (AU) (AG) (AU) (AG) (AU)
                 (AU) (AG) (AG) (AG) (AU) (AU) (AU) (AG) (AU) (AG)
                 (AG) (AU) (AG) (AU) (AU) (AG) (AU) (AU) (AG) (AU)
                 (AG) (AG) (AU) (AG) (AU) (AG) (AG)
       Virtual   (AU) (AU) (AG) (AU) (AG) (AU) (AG) (AU) (AU) (AG)
                 (AG) (AG) (AU) (AG) (AU) (AG) (AU) (AG) (AG) (AU)
                 (AU) (AU) (AU) (AG) (AG) (AU) (AG) (AU) (AG) (AG)
                 (AU) (AG) (AU) (AU) (AU) (AG) (AG) (AG) (AU) (AG)
                 (AU) (AU) (AG) (AG) (AU) (AG) (AU) (AU) (AG) (AG)
                 (AU) (AG) (AU) (AU) (AU) (AG) (AG) (AG) (AG) (AU)
                 (AU) (AU) (AG) (AU) (AG) (AU) (AG) (AG) (AG) (AU)
                 (AU) (AG) (AG) (AU) (AU) (AG) (AG) (AU) (AU) (AG)
                 (AU) (AG) (AU) (AG) (AU) (AU) (AG) (AU) (AG) (AU)
                 (AG) (AU) (AG) (AU) (AG) (AG) (AU) (AG) (AU)
 The electronic state of the initial guess is 1-AG.
 Leave Link  401 at Sat Apr  4 19:34:23 2026, MaxMem=  2415919104 cpu:               3.8 elap:               1.0
 (Enter /opt/software/gaussian/g16_avx/g16/l502.exe)
 Keep R1 ints in memory in symmetry-blocked form, NReq=86402617.
 FoFCou: FMM=F IPFlag=           0 FMFlag=           0 FMFlg1=           0
         NFxFlg=           0 DoJE=F BraDBF=F KetDBF=F FulRan=T
         wScrn=  0.000000 ICntrl=       600 IOpCl=  0 I1Cent=           0 NGrid=           0
         NMat0=    1 NMatS0=  10731 NMatT0=    0 NMatD0=    1 NMtDS0=    0 NMtDT0=    0
 Petite list used in FoFCou.
 Closed shell SCF:
 Using DIIS extrapolation, IDIIS=  1040.
 NGot=  2415919104 LenX=  2387054968 LenY=  2387033211
 Requested convergence on RMS density matrix=1.00D-08 within 128 cycles.
 Requested convergence on MAX density matrix=1.00D-06.
 Requested convergence on             energy=1.00D-06.
 No special actions if energy rises.
 Integral accuracy reduced to 1.0D-05 until final iterations.

 Cycle   1  Pass 0  IDiag  1:
 E= -536.334500037662    
 DIIS: error= 4.00D-02 at cycle   1 NSaved=   1.
 NSaved= 1 IEnMin= 1 EnMin= -536.334500037662     IErMin= 1 ErrMin= 4.00D-02
 ErrMax= 4.00D-02  0.00D+00 EMaxC= 1.00D-01 BMatC= 1.65D-01 BMatP= 1.65D-01
 IDIUse=3 WtCom= 6.00D-01 WtEn= 4.00D-01
 Coeff-Com:  0.100D+01
 Coeff-En:   0.100D+01
 Coeff:      0.100D+01
 Gap=     0.136 Goal=   None    Shift=    0.000
 GapD=    0.136 DampG=1.000 DampE=0.500 DampFc=0.5000 IDamp=-1.
 Damping current iteration by 5.00D-01
 RMSDP=6.08D-03 MaxDP=9.02D-02              OVMax= 1.21D-01

 Cycle   2  Pass 0  IDiag  1:
 E= -536.428431586720     Delta-E=       -0.093931549059 Rises=F Damp=T
 DIIS: error= 6.60D-03 at cycle   2 NSaved=   2.
 NSaved= 2 IEnMin= 2 EnMin= -536.428431586720     IErMin= 2 ErrMin= 6.60D-03
 ErrMax= 6.60D-03  0.00D+00 EMaxC= 1.00D-01 BMatC= 7.54D-03 BMatP= 1.65D-01
 IDIUse=3 WtCom= 9.34D-01 WtEn= 6.60D-02
 Coeff-Com: -0.920D-01 0.109D+01
 Coeff-En:   0.000D+00 0.100D+01
 Coeff:     -0.859D-01 0.109D+01
 Gap=     0.136 Goal=   None    Shift=    0.000
 RMSDP=1.52D-03 MaxDP=2.04D-02 DE=-9.39D-02 OVMax= 6.58D-02

 Cycle   3  Pass 0  IDiag  1:
 E= -536.516040188256     Delta-E=       -0.087608601536 Rises=F Damp=F
 DIIS: error= 3.82D-03 at cycle   3 NSaved=   3.
 NSaved= 3 IEnMin= 3 EnMin= -536.516040188256     IErMin= 3 ErrMin= 3.82D-03
 ErrMax= 3.82D-03  0.00D+00 EMaxC= 1.00D-01 BMatC= 1.73D-03 BMatP= 7.54D-03
 IDIUse=3 WtCom= 9.62D-01 WtEn= 3.82D-02
 Coeff-Com: -0.613D-01 0.331D+00 0.731D+00
 Coeff-En:   0.000D+00 0.000D+00 0.100D+01
 Coeff:     -0.590D-01 0.318D+00 0.741D+00
 Gap=     0.136 Goal=   None    Shift=    0.000
 RMSDP=7.13D-04 MaxDP=1.26D-02 DE=-8.76D-02 OVMax= 2.37D-02

 Cycle   4  Pass 0  IDiag  1:
 E= -536.516546805001     Delta-E=       -0.000506616745 Rises=F Damp=F
 DIIS: error= 4.35D-03 at cycle   4 NSaved=   4.
 NSaved= 4 IEnMin= 4 EnMin= -536.516546805001     IErMin= 3 ErrMin= 3.82D-03
 ErrMax= 4.35D-03  0.00D+00 EMaxC= 1.00D-01 BMatC= 1.34D-03 BMatP= 1.73D-03
 IDIUse=3 WtCom= 9.57D-01 WtEn= 4.35D-02
 Coeff-Com: -0.295D-01 0.109D+00 0.489D+00 0.432D+00
 Coeff-En:   0.000D+00 0.000D+00 0.436D+00 0.564D+00
 Coeff:     -0.282D-01 0.104D+00 0.487D+00 0.438D+00
 Gap=     0.136 Goal=   None    Shift=    0.000
 RMSDP=3.36D-04 MaxDP=5.20D-03 DE=-5.07D-04 OVMax= 1.42D-02

 Cycle   5  Pass 0  IDiag  1:
 E= -536.518042223466     Delta-E=       -0.001495418465 Rises=F Damp=F
 DIIS: error= 6.59D-04 at cycle   5 NSaved=   5.
 NSaved= 5 IEnMin= 5 EnMin= -536.518042223466     IErMin= 5 ErrMin= 6.59D-04
 ErrMax= 6.59D-04  0.00D+00 EMaxC= 1.00D-01 BMatC= 2.80D-05 BMatP= 1.34D-03
 IDIUse=3 WtCom= 9.93D-01 WtEn= 6.59D-03
 Coeff-Com: -0.678D-02 0.229D-01 0.154D+00 0.192D+00 0.638D+00
 Coeff-En:   0.000D+00 0.000D+00 0.000D+00 0.000D+00 0.100D+01
 Coeff:     -0.674D-02 0.228D-01 0.153D+00 0.191D+00 0.640D+00
 Gap=     0.136 Goal=   None    Shift=    0.000
 RMSDP=8.05D-05 MaxDP=1.40D-03 DE=-1.50D-03 OVMax= 2.73D-03

 Cycle   6  Pass 0  IDiag  1:
 E= -536.518069541974     Delta-E=       -0.000027318508 Rises=F Damp=F
 DIIS: error= 2.87D-04 at cycle   6 NSaved=   6.
 NSaved= 6 IEnMin= 6 EnMin= -536.518069541974     IErMin= 6 ErrMin= 2.87D-04
 ErrMax= 2.87D-04  0.00D+00 EMaxC= 1.00D-01 BMatC= 8.33D-06 BMatP= 2.80D-05
 IDIUse=3 WtCom= 9.97D-01 WtEn= 2.87D-03
 Coeff-Com: -0.232D-03-0.690D-03 0.362D-01 0.671D-01 0.402D+00 0.496D+00
 Coeff-En:   0.000D+00 0.000D+00 0.000D+00 0.000D+00 0.190D+00 0.810D+00
 Coeff:     -0.231D-03-0.688D-03 0.361D-01 0.670D-01 0.401D+00 0.497D+00
 Gap=     0.136 Goal=   None    Shift=    0.000
 RMSDP=2.19D-05 MaxDP=4.61D-04 DE=-2.73D-05 OVMax= 8.21D-04

 Cycle   7  Pass 0  IDiag  1:
 E= -536.518078066350     Delta-E=       -0.000008524376 Rises=F Damp=F
 DIIS: error= 2.78D-05 at cycle   7 NSaved=   7.
 NSaved= 7 IEnMin= 7 EnMin= -536.518078066350     IErMin= 7 ErrMin= 2.78D-05
 ErrMax= 2.78D-05  0.00D+00 EMaxC= 1.00D-01 BMatC= 6.22D-08 BMatP= 8.33D-06
 IDIUse=1 WtCom= 1.00D+00 WtEn= 0.00D+00
 Coeff-Com: -0.525D-04-0.594D-03 0.178D-01 0.337D-01 0.208D+00 0.262D+00
 Coeff-Com:  0.479D+00
 Coeff:     -0.525D-04-0.594D-03 0.178D-01 0.337D-01 0.208D+00 0.262D+00
 Coeff:      0.479D+00
 Gap=     0.136 Goal=   None    Shift=    0.000
 RMSDP=2.84D-06 MaxDP=5.20D-05 DE=-8.52D-06 OVMax= 1.39D-04

 Initial convergence to 1.0D-05 achieved.  Increase integral accuracy.
 Cycle   8  Pass 1  IDiag  1:
 E= -536.518008254571     Delta-E=        0.000069811779 Rises=F Damp=F
 DIIS: error= 1.99D-05 at cycle   1 NSaved=   1.
 NSaved= 1 IEnMin= 1 EnMin= -536.518008254571     IErMin= 1 ErrMin= 1.99D-05
 ErrMax= 1.99D-05  0.00D+00 EMaxC= 1.00D-01 BMatC= 2.89D-08 BMatP= 2.89D-08
 IDIUse=1 WtCom= 1.00D+00 WtEn= 0.00D+00
 Coeff-Com:  0.100D+01
 Coeff:      0.100D+01
 Gap=     0.136 Goal=   None    Shift=    0.000
 RMSDP=2.84D-06 MaxDP=5.20D-05 DE= 6.98D-05 OVMax= 1.14D-04

 Cycle   9  Pass 1  IDiag  1:
 E= -536.518008260250     Delta-E=       -0.000000005679 Rises=F Damp=F
 DIIS: error= 1.70D-05 at cycle   2 NSaved=   2.
 NSaved= 2 IEnMin= 2 EnMin= -536.518008260250     IErMin= 2 ErrMin= 1.70D-05
 ErrMax= 1.70D-05  0.00D+00 EMaxC= 1.00D-01 BMatC= 3.10D-08 BMatP= 2.89D-08
 IDIUse=1 WtCom= 1.00D+00 WtEn= 0.00D+00
 Coeff-Com:  0.512D+00 0.488D+00
 Coeff:      0.512D+00 0.488D+00
 Gap=     0.136 Goal=   None    Shift=    0.000
 RMSDP=2.16D-06 MaxDP=3.45D-05 DE=-5.68D-09 OVMax= 9.89D-05

 Cycle  10  Pass 1  IDiag  1:
 E= -536.518008289449     Delta-E=       -0.000000029199 Rises=F Damp=F
 DIIS: error= 6.99D-06 at cycle   3 NSaved=   3.
 NSaved= 3 IEnMin= 3 EnMin= -536.518008289449     IErMin= 3 ErrMin= 6.99D-06
 ErrMax= 6.99D-06  0.00D+00 EMaxC= 1.00D-01 BMatC= 5.80D-09 BMatP= 2.89D-08
 IDIUse=1 WtCom= 1.00D+00 WtEn= 0.00D+00
 Coeff-Com: -0.940D-02 0.300D+00 0.710D+00
 Coeff:     -0.940D-02 0.300D+00 0.710D+00
 Gap=     0.136 Goal=   None    Shift=    0.000
 RMSDP=6.68D-07 MaxDP=8.80D-06 DE=-2.92D-08 OVMax= 3.09D-05

 Cycle  11  Pass 1  IDiag  1:
 E= -536.518008296033     Delta-E=       -0.000000006584 Rises=F Damp=F
 DIIS: error= 1.15D-06 at cycle   4 NSaved=   4.
 NSaved= 4 IEnMin= 4 EnMin= -536.518008296033     IErMin= 4 ErrMin= 1.15D-06
 ErrMax= 1.15D-06  0.00D+00 EMaxC= 1.00D-01 BMatC= 1.15D-10 BMatP= 5.80D-09
 IDIUse=1 WtCom= 1.00D+00 WtEn= 0.00D+00
 Coeff-Com: -0.112D-01 0.146D+00 0.360D+00 0.505D+00
 Coeff:     -0.112D-01 0.146D+00 0.360D+00 0.505D+00
 Gap=     0.136 Goal=   None    Shift=    0.000
 RMSDP=1.17D-07 MaxDP=1.89D-06 DE=-6.58D-09 OVMax= 4.75D-06

 Cycle  12  Pass 1  IDiag  1:
 E= -536.518008296133     Delta-E=       -0.000000000100 Rises=F Damp=F
 DIIS: error= 4.77D-07 at cycle   5 NSaved=   5.
 NSaved= 5 IEnMin= 5 EnMin= -536.518008296133     IErMin= 5 ErrMin= 4.77D-07
 ErrMax= 4.77D-07  0.00D+00 EMaxC= 1.00D-01 BMatC= 1.83D-11 BMatP= 1.15D-10
 IDIUse=1 WtCom= 1.00D+00 WtEn= 0.00D+00
 Coeff-Com: -0.514D-02 0.400D-01 0.102D+00 0.308D+00 0.554D+00
 Coeff:     -0.514D-02 0.400D-01 0.102D+00 0.308D+00 0.554D+00
 Gap=     0.136 Goal=   None    Shift=    0.000
 RMSDP=4.53D-08 MaxDP=7.73D-07 DE=-1.00D-10 OVMax= 1.86D-06

 Cycle  13  Pass 1  IDiag  1:
 E= -536.518008296154     Delta-E=       -0.000000000021 Rises=F Damp=F
 DIIS: error= 1.05D-07 at cycle   6 NSaved=   6.
 NSaved= 6 IEnMin= 6 EnMin= -536.518008296154     IErMin= 6 ErrMin= 1.05D-07
 ErrMax= 1.05D-07  0.00D+00 EMaxC= 1.00D-01 BMatC= 1.04D-12 BMatP= 1.83D-11
 IDIUse=1 WtCom= 1.00D+00 WtEn= 0.00D+00
 Coeff-Com: -0.260D-02 0.176D-01 0.462D-01 0.165D+00 0.335D+00 0.438D+00
 Coeff:     -0.260D-02 0.176D-01 0.462D-01 0.165D+00 0.335D+00 0.438D+00
 Gap=     0.136 Goal=   None    Shift=    0.000
 RMSDP=9.90D-09 MaxDP=2.09D-07 DE=-2.11D-11 OVMax= 3.35D-07

 SCF Done:  E(RB3LYP) =  -536.518008296     A.U. after   13 cycles
            NFock= 13  Conv=0.99D-08     -V/T= 2.0098
 KE= 5.313010461896D+02 PE=-2.768414224912D+03 EE= 9.369737945935D+02
 Leave Link  502 at Sat Apr  4 19:34:33 2026, MaxMem=  2415919104 cpu:              38.9 elap:              10.0
 (Enter /opt/software/gaussian/g16_avx/g16/l601.exe)
 Copying SCF densities to generalized density rwf, IOpCl= 0 IROHF=0.

 **********************************************************************

            Population analysis using the SCF Density.

 **********************************************************************

 Orbital symmetries:
       Occupied  (AU) (AG) (AU) (AG) (AG) (AU) (AG) (AU) (AU) (AG)
                 (AU) (AG) (AU) (AG) (AG) (AU) (AG) (AU) (AG) (AU)
                 (AU) (AG) (AG) (AG) (AU) (AU) (AU) (AG) (AU) (AG)
                 (AU) (AG) (AG) (AU) (AU) (AU) (AG) (AG) (AU) (AU)
                 (AG) (AG) (AU) (AG) (AU) (AG) (AG)
       Virtual   (AU) (AU) (AG) (AU) (AG) (AU) (AG) (AU) (AG) (AG)
                 (AU) (AU) (AG) (AU) (AG) (AU) (AG) (AG) (AG) (AU)
                 (AU) (AU) (AU) (AG) (AG) (AU) (AG) (AU) (AG) (AG)
                 (AG) (AU) (AU) (AU) (AG) (AU) (AG) (AU) (AG) (AU)
                 (AG) (AG) (AG) (AU) (AG) (AU) (AU) (AG) (AU) (AU)
                 (AG) (AG) (AU) (AU) (AU) (AG) (AG) (AG) (AG) (AU)
                 (AU) (AU) (AU) (AG) (AG) (AG) (AU) (AG) (AG) (AU)
                 (AU) (AG) (AG) (AU) (AG) (AU) (AG) (AU) (AU) (AG)
                 (AG) (AU) (AU) (AU) (AG) (AU) (AG) (AU) (AG) (AU)
                 (AG) (AU) (AG) (AU) (AG) (AG) (AU) (AG) (AU)
 The electronic state is 1-AG.
 Alpha  occ. eigenvalues --  -10.14355 -10.14352 -10.14287 -10.14287 -10.14170
 Alpha  occ. eigenvalues --  -10.14168 -10.14143 -10.14141 -10.14029 -10.14027
 Alpha  occ. eigenvalues --  -10.13698 -10.13682 -10.13561 -10.13552  -0.88979
 Alpha  occ. eigenvalues --   -0.85970  -0.81102  -0.78688  -0.75605  -0.74424
 Alpha  occ. eigenvalues --   -0.70925  -0.64433  -0.62340  -0.60794  -0.59252
 Alpha  occ. eigenvalues --   -0.53897  -0.52178  -0.51375  -0.46782  -0.46035
 Alpha  occ. eigenvalues --   -0.45325  -0.45153  -0.42611  -0.41723  -0.40890
 Alpha  occ. eigenvalues --   -0.40630  -0.40324  -0.36888  -0.36306  -0.35623
 Alpha  occ. eigenvalues --   -0.33716  -0.32592  -0.30975  -0.30053  -0.25963
 Alpha  occ. eigenvalues --   -0.24704  -0.19785
 Alpha virt. eigenvalues --   -0.06201  -0.00783   0.00476   0.04265   0.06700
 Alpha virt. eigenvalues --    0.08810   0.09123   0.11147   0.14134   0.14468
 Alpha virt. eigenvalues --    0.15538   0.16353   0.16977   0.17973   0.19237
 Alpha virt. eigenvalues --    0.21249   0.21995   0.25411   0.27396   0.28493
 Alpha virt. eigenvalues --    0.32278   0.32668   0.33039   0.33732   0.35320
 Alpha virt. eigenvalues --    0.37803   0.41498   0.47618   0.51222   0.55173
 Alpha virt. eigenvalues --    0.57543   0.57855   0.62816   0.63602   0.66505
 Alpha virt. eigenvalues --    0.67397   0.69421   0.71524   0.73124   0.73266
 Alpha virt. eigenvalues --    0.73627   0.74070   0.74790   0.75243   0.77647
 Alpha virt. eigenvalues --    0.78029   0.79207   0.80148   0.80229   0.80646
 Alpha virt. eigenvalues --    0.80886   0.82236   0.83942   0.85325   0.86743
 Alpha virt. eigenvalues --    0.87208   0.89175   0.90287   0.93039   0.93146
 Alpha virt. eigenvalues --    0.97184   0.97488   0.98089   0.98283   1.00322
 Alpha virt. eigenvalues --    1.01999   1.02578   1.02590   1.13640   1.15299
 Alpha virt. eigenvalues --    1.16662   1.21510   1.30819   1.34525   1.35707
 Alpha virt. eigenvalues --    1.36360   1.37611   1.38232   1.41205   1.45316
 Alpha virt. eigenvalues --    1.48990   1.50018   1.51405   1.51803   1.51849
 Alpha virt. eigenvalues --    1.52369   1.53821   1.55332   1.60756   1.61407
 Alpha virt. eigenvalues --    1.77087   1.81773   1.88686   1.92302   1.94949
 Alpha virt. eigenvalues --    2.00526   2.32936   2.40989   2.49936
          Condensed to atoms (all electrons):
               1          2          3          4          5          6
     1  C    5.128194   0.495565  -0.090337   0.002950  -0.012086  -0.094642
     2  C    0.495565   5.158541   0.398940  -0.058266  -0.064092  -0.023403
     3  C   -0.090337   0.398940   5.136484   0.453705   0.421669  -0.062264
     4  C    0.002950  -0.058266   0.453705   5.175621  -0.070067   0.004142
     5  C   -0.012086  -0.064092   0.421669  -0.070067   5.136492   0.400353
     6  C   -0.094642  -0.023403  -0.062264   0.004142   0.400353   5.179427
     7  C    0.441455  -0.086904  -0.013683   0.000155  -0.090830   0.479233
     8  H    0.379416  -0.046719   0.004655  -0.000076  -0.000140   0.003387
     9  H   -0.030705   0.383919  -0.045517  -0.001963   0.003037  -0.000078
    10  H    0.000106  -0.002431  -0.040507   0.385204   0.003193  -0.000071
    11  H    0.003051  -0.000040   0.003245  -0.000071  -0.047167   0.387374
    12  H   -0.021856   0.002549  -0.000136   0.000001   0.005276  -0.055101
    13  C   -0.000144   0.003324  -0.089963   0.454073  -0.009701   0.000173
    14  C    0.000135   0.004178  -0.071173  -0.029934   0.454073  -0.060634
    15  C    0.000006   0.000193  -0.010235  -0.071173  -0.089963   0.003409
    16  C    0.000000  -0.000073   0.003409  -0.060634   0.000173  -0.000000
    17  H    0.000008  -0.000070   0.003152   0.000017  -0.039972  -0.002500
    18  C   -0.000000  -0.000000   0.000193   0.004178   0.003324  -0.000073
    19  C   -0.000000   0.000000  -0.000154   0.003264   0.000007  -0.000000
    20  H    0.000000  -0.000002   0.000097  -0.002151   0.000004  -0.000000
    21  C   -0.000000  -0.000000   0.000006   0.000135  -0.000144   0.000000
    22  H    0.000000  -0.000000   0.000003  -0.000067   0.000096  -0.000002
    23  H    0.000000  -0.000000   0.000001  -0.000098   0.000000   0.000000
    24  H   -0.000000   0.000000   0.000000   0.000000   0.000001  -0.000000
               7          8          9         10         11         12
     1  C    0.441455   0.379416  -0.030705   0.000106   0.003051  -0.021856
     2  C   -0.086904  -0.046719   0.383919  -0.002431  -0.000040   0.002549
     3  C   -0.013683   0.004655  -0.045517  -0.040507   0.003245  -0.000136
     4  C    0.000155  -0.000076  -0.001963   0.385204  -0.000071   0.000001
     5  C   -0.090830  -0.000140   0.003037   0.003193  -0.047167   0.005276
     6  C    0.479233   0.003387  -0.000078  -0.000071   0.387374  -0.055101
     7  C    5.139928  -0.031112   0.002918   0.000008  -0.032848   0.374210
     8  H   -0.031112   0.511675  -0.004300  -0.000003  -0.000034  -0.002386
     9  H    0.002918  -0.004300   0.507063   0.004279   0.000002  -0.000023
    10  H    0.000008  -0.000003   0.004279   0.507925   0.000001  -0.000000
    11  H   -0.032848  -0.000034   0.000002   0.000001   0.507302  -0.005605
    12  H    0.374210  -0.002386  -0.000023  -0.000000  -0.005605   0.524983
    13  C    0.000007   0.000001   0.000096  -0.039972   0.000004   0.000000
    14  C    0.003264   0.000000  -0.000067   0.000017  -0.002151  -0.000098
    15  C   -0.000154   0.000000   0.000003   0.003152   0.000097   0.000001
    16  C   -0.000000  -0.000000  -0.000002  -0.002500  -0.000000   0.000000
    17  H    0.000119  -0.000000   0.000000   0.000004   0.004327  -0.000004
    18  C    0.000000   0.000000  -0.000000  -0.000070  -0.000002  -0.000000
    19  C   -0.000000   0.000000   0.000000   0.000119   0.000000  -0.000000
    20  H    0.000000  -0.000000   0.000001   0.004327   0.000000   0.000000
    21  C   -0.000000  -0.000000   0.000000   0.000008   0.000000   0.000000
    22  H    0.000000   0.000000   0.000000   0.000000   0.000001  -0.000000
    23  H   -0.000000  -0.000000  -0.000000  -0.000004   0.000000   0.000000
    24  H    0.000000   0.000000   0.000000  -0.000000  -0.000000  -0.000000
              13         14         15         16         17         18
     1  C   -0.000144   0.000135   0.000006   0.000000   0.000008  -0.000000
     2  C    0.003324   0.004178   0.000193  -0.000073  -0.000070  -0.000000
     3  C   -0.089963  -0.071173  -0.010235   0.003409   0.003152   0.000193
     4  C    0.454073  -0.029934  -0.071173  -0.060634   0.000017   0.004178
     5  C   -0.009701   0.454073  -0.089963   0.000173  -0.039972   0.003324
     6  C    0.000173  -0.060634   0.003409  -0.000000  -0.002500  -0.000073
     7  C    0.000007   0.003264  -0.000154  -0.000000   0.000119   0.000000
     8  H    0.000001   0.000000   0.000000  -0.000000  -0.000000   0.000000
     9  H    0.000096  -0.000067   0.000003  -0.000002   0.000000  -0.000000
    10  H   -0.039972   0.000017   0.003152  -0.002500   0.000004  -0.000070
    11  H    0.000004  -0.002151   0.000097  -0.000000   0.004327  -0.000002
    12  H    0.000000  -0.000098   0.000001   0.000000  -0.000004  -0.000000
    13  C    5.136492  -0.070067   0.421669   0.400353   0.003193  -0.064092
    14  C   -0.070067   5.175621   0.453705   0.004142   0.385204  -0.058266
    15  C    0.421669   0.453705   5.136484  -0.062264  -0.040507   0.398940
    16  C    0.400353   0.004142  -0.062264   5.179427  -0.000071  -0.023403
    17  H    0.003193   0.385204  -0.040507  -0.000071   0.507925  -0.002431
    18  C   -0.064092  -0.058266   0.398940  -0.023403  -0.002431   5.158541
    19  C   -0.090830   0.000155  -0.013683   0.479233   0.000008  -0.086904
    20  H   -0.047167  -0.000071   0.003245   0.387374   0.000001  -0.000040
    21  C   -0.012086   0.002950  -0.090337  -0.094642   0.000106   0.495565
    22  H    0.003037  -0.001963  -0.045517  -0.000078   0.004279   0.383919
    23  H    0.005276   0.000001  -0.000136  -0.055101  -0.000000   0.002549
    24  H   -0.000140  -0.000076   0.004655   0.003387  -0.000003  -0.046719
              19         20         21         22         23         24
     1  C   -0.000000   0.000000  -0.000000   0.000000   0.000000  -0.000000
     2  C    0.000000  -0.000002  -0.000000  -0.000000  -0.000000   0.000000
     3  C   -0.000154   0.000097   0.000006   0.000003   0.000001   0.000000
     4  C    0.003264  -0.002151   0.000135  -0.000067  -0.000098   0.000000
     5  C    0.000007   0.000004  -0.000144   0.000096   0.000000   0.000001
     6  C   -0.000000  -0.000000   0.000000  -0.000002   0.000000  -0.000000
     7  C   -0.000000   0.000000  -0.000000   0.000000  -0.000000   0.000000
     8  H    0.000000  -0.000000  -0.000000   0.000000  -0.000000   0.000000
     9  H    0.000000   0.000001   0.000000   0.000000  -0.000000   0.000000
    10  H    0.000119   0.004327   0.000008   0.000000  -0.000004  -0.000000
    11  H    0.000000   0.000000   0.000000   0.000001   0.000000  -0.000000
    12  H   -0.000000   0.000000   0.000000  -0.000000   0.000000  -0.000000
    13  C   -0.090830  -0.047167  -0.012086   0.003037   0.005276  -0.000140
    14  C    0.000155  -0.000071   0.002950  -0.001963   0.000001  -0.000076
    15  C   -0.013683   0.003245  -0.090337  -0.045517  -0.000136   0.004655
    16  C    0.479233   0.387374  -0.094642  -0.000078  -0.055101   0.003387
    17  H    0.000008   0.000001   0.000106   0.004279  -0.000000  -0.000003
    18  C   -0.086904  -0.000040   0.495565   0.383919   0.002549  -0.046719
    19  C    5.139928  -0.032848   0.441455   0.002918   0.374210  -0.031112
    20  H   -0.032848   0.507302   0.003051   0.000002  -0.005605  -0.000034
    21  C    0.441455   0.003051   5.128194  -0.030705  -0.021856   0.379416
    22  H    0.002918   0.000002  -0.030705   0.507063  -0.000023  -0.004300
    23  H    0.374210  -0.005605  -0.021856  -0.000023   0.524983  -0.002386
    24  H   -0.031112  -0.000034   0.379416  -0.004300  -0.002386   0.511675
 Mulliken charges:
               1
     1  C   -0.201117
     2  C   -0.165212
     3  C   -0.001591
     4  C   -0.188944
     5  C   -0.003534
     6  C   -0.158729
     7  C   -0.185767
     8  H    0.185637
     9  H    0.181335
    10  H    0.177217
    11  H    0.182515
    12  H    0.178189
    13  C   -0.003534
    14  C   -0.188944
    15  C   -0.001591
    16  C   -0.158729
    17  H    0.177217
    18  C   -0.165212
    19  C   -0.185767
    20  H    0.182515
    21  C   -0.201117
    22  H    0.181335
    23  H    0.178189
    24  H    0.185637
 Sum of Mulliken charges =   0.00000
 Mulliken charges with hydrogens summed into heavy atoms:
               1
     1  C   -0.015480
     2  C    0.016123
     3  C   -0.001591
     4  C   -0.011726
     5  C   -0.003534
     6  C    0.023786
     7  C   -0.007578
    13  C   -0.003534
    14  C   -0.011726
    15  C   -0.001591
    16  C    0.023786
    18  C    0.016123
    19  C   -0.007578
    21  C   -0.015480
 Electronic spatial extent (au):  <R**2>=           2860.4625
 Charge=             -0.0000 electrons
 Dipole moment (field-independent basis, Debye):
    X=              0.0000    Y=             -0.0000    Z=             -0.0000  Tot=              0.0000
 Quadrupole moment (field-independent basis, Debye-Ang):
   XX=            -84.4067   YY=            -71.6704   ZZ=            -74.7557
   XY=              6.8802   XZ=             -4.9341   YZ=              3.4696
 Traceless Quadrupole moment (field-independent basis, Debye-Ang):
   XX=             -7.4625   YY=              5.2739   ZZ=              2.1886
   XY=              6.8802   XZ=             -4.9341   YZ=              3.4696
 Octapole moment (field-independent basis, Debye-Ang**2):
  XXX=             -0.0000  YYY=             -0.0000  ZZZ=             -0.0000  XYY=             -0.0000
  XXY=              0.0000  XXZ=             -0.0000  XZZ=             -0.0000  YZZ=              0.0000
  YYZ=              0.0000  XYZ=              0.0000
 Hexadecapole moment (field-independent basis, Debye-Ang**3):
 XXXX=           -972.0252 YYYY=           -623.4498 ZZZZ=          -2297.0671 XXXY=           -175.0598
 XXXZ=            632.4281 YYYX=           -142.2832 YYYZ=             73.3224 ZZZX=            507.4446
 ZZZY=            127.7314 XXYY=           -236.3713 XXZZ=           -518.9494 YYZZ=           -471.1037
 XXYZ=             -9.6673 YYXZ=            178.6339 ZZXY=            -43.3906
 N-N= 7.636213758328D+02 E-N=-2.768414220604D+03  KE= 5.313010461896D+02
 Symmetry AG   KE= 2.667327803309D+02
 Symmetry AU   KE= 2.645682658587D+02
 No NMR shielding tensors so no spin-rotation constants.
 Leave Link  601 at Sat Apr  4 19:34:33 2026, MaxMem=  2415919104 cpu:               0.3 elap:               0.1
 (Enter /opt/software/gaussian/g16_avx/g16/l701.exe)
 ... and contract with generalized density number  0.
 Compute integral first derivatives.
 Leave Link  701 at Sat Apr  4 19:34:34 2026, MaxMem=  2415919104 cpu:               0.3 elap:               0.1
 (Enter /opt/software/gaussian/g16_avx/g16/l702.exe)
 L702 exits ... SP integral derivatives will be done elsewhere.
 Leave Link  702 at Sat Apr  4 19:34:34 2026, MaxMem=  2415919104 cpu:               0.1 elap:               0.0
 (Enter /opt/software/gaussian/g16_avx/g16/l703.exe)
 Integral derivatives from FoFJK, PRISM(SPDF).
 Compute integral first derivatives, UseDBF=F ICtDFT=           0.
 Calling FoFJK, ICntrl=      2127 FMM=F ISym2X=1 I1Cent= 0 IOpClX= 0 NMat=1 NMatS=1 NMatT=0.
 FoFJK:  IHMeth= 1 ICntrl=    2127 DoSepK=F KAlg= 0 I1Cent=           0 FoldK=F
 IRaf=         0 NMat=       1 IRICut=       1 DoRegI=T DoRafI=F ISym2E= 1 IDoP0=0 IntGTp=1.
 FoFCou: FMM=F IPFlag=           0 FMFlag=      100000 FMFlg1=         800
         NFxFlg=           0 DoJE=F BraDBF=F KetDBF=F FulRan=T
         wScrn=  0.000000 ICntrl=      2127 IOpCl=  0 I1Cent=           0 NGrid=           0
         NMat0=    1 NMatS0=      1 NMatT0=    0 NMatD0=    1 NMtDS0=    0 NMtDT0=    0
 Petite list used in FoFCou.
 Leave Link  703 at Sat Apr  4 19:34:36 2026, MaxMem=  2415919104 cpu:               9.4 elap:               2.4
 (Enter /opt/software/gaussian/g16_avx/g16/l716.exe)
 Dipole        =-4.44089210D-16 5.77315973D-15 1.77635684D-15
 ***** Axes restored to original set *****
 -------------------------------------------------------------------
 Center     Atomic                   Forces (Hartrees/Bohr)
 Number     Number              X              Y              Z
 -------------------------------------------------------------------
      1        6          -0.006289431    0.040202013    0.035842487
      2        6           0.014410019    0.012578101   -0.008022574
      3        6           0.009032101    0.023366436    0.007983860
      4        6          -0.002252017    0.006705706    0.008140571
      5        6          -0.009860604   -0.017164350   -0.007152037
      6        6           0.013477892   -0.012856231   -0.024003931
      7        6          -0.025458813   -0.065365817    0.015876304
      8        1           0.003922755   -0.024256148   -0.019991607
      9        1          -0.018062993   -0.030699905   -0.005832179
     10        1          -0.004323420   -0.018220004   -0.006454839
     11        1           0.001052209    0.023844198    0.012198750
     12        1           0.017977911    0.052676002   -0.006529626
     13        6           0.009860604    0.017164350    0.007152037
     14        6           0.002252017   -0.006705706   -0.008140571
     15        6          -0.009032101   -0.023366436   -0.007983860
     16        6          -0.013477892    0.012856231    0.024003931
     17        1           0.004323420    0.018220004    0.006454839
     18        6          -0.014410019   -0.012578101    0.008022574
     19        6           0.025458813    0.065365817   -0.015876304
     20        1          -0.001052209   -0.023844198   -0.012198750
     21        6           0.006289431   -0.040202013   -0.035842487
     22        1           0.018062993    0.030699905    0.005832179
     23        1          -0.017977911   -0.052676002    0.006529626
     24        1          -0.003922755    0.024256148    0.019991607
 -------------------------------------------------------------------
 Cartesian Forces:  Max     0.065365817 RMS     0.021905653
 Leave Link  716 at Sat Apr  4 19:34:36 2026, MaxMem=  2415919104 cpu:               0.1 elap:               0.0
 (Enter /opt/software/gaussian/g16_avx/g16/l103.exe)

 GradGradGradGradGradGradGradGradGradGradGradGradGradGradGradGradGradGrad
 Berny optimization.
 FormGI is forming the generalized inverse of G from B-inverse, IUseBI=4.
 Internal  Forces:  Max     0.050257590 RMS     0.011287810
 Search for a local minimum.
 Step number   1 out of a maximum of  142
 All quantities printed in internal units (Hartrees-Bohrs-Radians)
 RMS Force = .11288D-01 SwitMx=.10000D-02 MixMth= 1
 Mixed Optimization -- RFO/linear search
 Second derivative matrix not updated -- first step.
 ITU=  0
     Eigenvalues ---    0.01676   0.01711   0.01721   0.01730   0.01782
     Eigenvalues ---    0.01845   0.01974   0.01975   0.01985   0.01985
     Eigenvalues ---    0.02009   0.02011   0.02015   0.02097   0.02097
     Eigenvalues ---    0.02175   0.02175   0.02257   0.02260   0.02340
     Eigenvalues ---    0.02343   0.15799   0.15800   0.15939   0.15939
     Eigenvalues ---    0.15958   0.15958   0.15987   0.15987   0.15996
     Eigenvalues ---    0.15996   0.22008   0.22008   0.22418   0.22570
     Eigenvalues ---    0.23278   0.23882   0.24480   0.24633   0.24999
     Eigenvalues ---    0.25632   0.25632   0.29161   0.29161   0.30142
     Eigenvalues ---    0.30142   0.30849   0.30849   0.31902   0.31902
     Eigenvalues ---    0.36096   0.37261   0.37290   0.38144   0.39213
     Eigenvalues ---    0.40571   0.40750   0.42957   0.43145   0.43908
     Eigenvalues ---    0.44109   0.45328   0.48718   0.48719   0.51398
     Eigenvalues ---    0.51425
 RFO step:  Lambda=-5.70418033D-02 EMin= 1.67582403D-02
 Linear search not attempted -- first point.
 Maximum step size (   0.300) exceeded in Quadratic search.
    -- Step size scaled by   0.680
 Iteration  1 RMS(Cart)=  0.03441263 RMS(Int)=  0.00128966
 Iteration  2 RMS(Cart)=  0.00150088 RMS(Int)=  0.00033622
 Iteration  3 RMS(Cart)=  0.00000382 RMS(Int)=  0.00033621
 Iteration  4 RMS(Cart)=  0.00000000 RMS(Int)=  0.00033621
 ITry= 1 IFail=0 DXMaxC= 1.79D-01 DCOld= 1.00D+10 DXMaxT= 3.00D-01 DXLimC= 3.00D+00 Rises=F
 ClnCor:  largest displacement from symmetrization is 1.74D-12 for atom    23.
 Variable       Old X    -DE/DX   Delta X   Delta X   Delta X     New X
                                 (Linear)    (Quad)   (Total)
    R1        2.59610  -0.00225   0.00000  -0.00315  -0.00314   2.59296
    R2        2.66692   0.00371   0.00000   0.00526   0.00527   2.67219
    R3        2.14381  -0.02875   0.00000  -0.05456  -0.05456   2.08925
    R4        2.73279  -0.00465   0.00000  -0.00783  -0.00783   2.72496
    R5        2.16368  -0.03551   0.00000  -0.06929  -0.06929   2.09439
    R6        2.66565  -0.00620   0.00000  -0.00851  -0.00851   2.65714
    R7        2.69027   0.01224   0.00000   0.01732   0.01731   2.70758
    R8        2.11023  -0.01974   0.00000  -0.03571  -0.03571   2.07452
    R9        2.64897   0.00024   0.00000   0.00032   0.00032   2.64929
   R10        2.72133  -0.00093   0.00000  -0.00086  -0.00087   2.72045
   R11        2.64897   0.00024   0.00000   0.00032   0.00032   2.64929
   R12        2.57238   0.01335   0.00000   0.01609   0.01609   2.58847
   R13        2.13002  -0.02610   0.00000  -0.04857  -0.04857   2.08145
   R14        2.24328  -0.05026   0.00000  -0.10911  -0.10911   2.13417
   R15        2.69027   0.01224   0.00000   0.01732   0.01731   2.70758
   R16        2.72133  -0.00093   0.00000  -0.00086  -0.00087   2.72045
   R17        2.66565  -0.00620   0.00000  -0.00851  -0.00851   2.65714
   R18        2.11023  -0.01974   0.00000  -0.03571  -0.03571   2.07452
   R19        2.73279  -0.00465   0.00000  -0.00783  -0.00783   2.72496
   R20        2.57238   0.01335   0.00000   0.01609   0.01609   2.58847
   R21        2.13002  -0.02610   0.00000  -0.04857  -0.04857   2.08145
   R22        2.59610  -0.00225   0.00000  -0.00315  -0.00314   2.59296
   R23        2.16368  -0.03551   0.00000  -0.06929  -0.06929   2.09439
   R24        2.66692   0.00371   0.00000   0.00526   0.00527   2.67219
   R25        2.24328  -0.05026   0.00000  -0.10911  -0.10911   2.13417
   R26        2.14381  -0.02875   0.00000  -0.05456  -0.05456   2.08925
    A1        2.12061  -0.00454   0.00000  -0.01216  -0.01212   2.10849
    A2        1.98122   0.01570   0.00000   0.04859   0.04860   2.02982
    A3        2.17874  -0.01111   0.00000  -0.03580  -0.03586   2.14288
    A4        2.08244   0.00974   0.00000   0.02134   0.02134   2.10378
    A5        2.16958  -0.01137   0.00000  -0.03091  -0.03094   2.13864
    A6        2.03041   0.00169   0.00000   0.00997   0.00994   2.04035
    A7        2.11449   0.00455   0.00000   0.01134   0.01134   2.12584
    A8        2.07724  -0.00207   0.00000  -0.00613  -0.00614   2.07110
    A9        2.09143  -0.00248   0.00000  -0.00519  -0.00519   2.08624
   A10        2.08111  -0.00105   0.00000  -0.00152  -0.00152   2.07959
   A11        2.10087   0.00416   0.00000   0.00952   0.00951   2.11038
   A12        2.10100  -0.00310   0.00000  -0.00795  -0.00795   2.09305
   A13        2.07867  -0.00442   0.00000  -0.00950  -0.00951   2.06916
   A14        2.09088  -0.00167   0.00000  -0.00432  -0.00432   2.08656
   A15        2.11363   0.00609   0.00000   0.01383   0.01384   2.12747
   A16        2.09949   0.00367   0.00000   0.01071   0.01067   2.11016
   A17        2.01993   0.00410   0.00000   0.01394   0.01395   2.03388
   A18        2.15991  -0.00763   0.00000  -0.02321  -0.02330   2.13661
   A19        2.10777  -0.00237   0.00000  -0.00412  -0.00414   2.10363
   A20        2.28121  -0.02514   0.00000  -0.08006  -0.08034   2.20087
   A21        1.88382   0.02783   0.00000   0.08764   0.08771   1.97153
   A22        2.09088  -0.00167   0.00000  -0.00432  -0.00432   2.08656
   A23        2.11363   0.00609   0.00000   0.01383   0.01384   2.12747
   A24        2.07867  -0.00442   0.00000  -0.00950  -0.00951   2.06916
   A25        2.10087   0.00416   0.00000   0.00952   0.00951   2.11038
   A26        2.10100  -0.00310   0.00000  -0.00795  -0.00795   2.09305
   A27        2.08111  -0.00105   0.00000  -0.00152  -0.00152   2.07959
   A28        2.09143  -0.00248   0.00000  -0.00519  -0.00519   2.08624
   A29        2.07724  -0.00207   0.00000  -0.00613  -0.00614   2.07110
   A30        2.11449   0.00455   0.00000   0.01134   0.01134   2.12584
   A31        2.09949   0.00367   0.00000   0.01071   0.01067   2.11016
   A32        2.01993   0.00410   0.00000   0.01394   0.01395   2.03388
   A33        2.15991  -0.00763   0.00000  -0.02321  -0.02330   2.13661
   A34        2.08244   0.00974   0.00000   0.02134   0.02134   2.10378
   A35        2.03041   0.00169   0.00000   0.00997   0.00994   2.04035
   A36        2.16958  -0.01137   0.00000  -0.03091  -0.03094   2.13864
   A37        2.10777  -0.00237   0.00000  -0.00412  -0.00414   2.10363
   A38        1.88382   0.02783   0.00000   0.08764   0.08771   1.97153
   A39        2.28121  -0.02514   0.00000  -0.08006  -0.08034   2.20087
   A40        2.12061  -0.00454   0.00000  -0.01216  -0.01212   2.10849
   A41        1.98122   0.01570   0.00000   0.04859   0.04860   2.02982
   A42        2.17874  -0.01111   0.00000  -0.03580  -0.03586   2.14288
    D1       -0.00603   0.00081   0.00000   0.00576   0.00561  -0.00042
    D2       -3.10420  -0.00099   0.00000  -0.00604  -0.00579  -3.11000
    D3       -3.07351   0.00068   0.00000  -0.00172  -0.00239  -3.07590
    D4        0.11150  -0.00112   0.00000  -0.01352  -0.01379   0.09771
    D5        0.01454  -0.00076   0.00000  -0.00644  -0.00637   0.00817
    D6        2.98193   0.00479   0.00000   0.03139   0.03021   3.01214
    D7        3.07332   0.00061   0.00000   0.00575   0.00594   3.07926
    D8       -0.24248   0.00615   0.00000   0.04358   0.04252  -0.19996
    D9        3.13945  -0.00033   0.00000  -0.00202  -0.00197   3.13747
   D10       -0.00910   0.00001   0.00000   0.00128   0.00137  -0.00774
   D11       -0.04216   0.00098   0.00000   0.00781   0.00778  -0.03438
   D12        3.09247   0.00132   0.00000   0.01111   0.01112   3.10359
   D13       -0.03303   0.00070   0.00000   0.00678   0.00685  -0.02617
   D14        3.13039   0.00036   0.00000   0.00424   0.00436   3.13475
   D15        3.11558   0.00036   0.00000   0.00346   0.00349   3.11907
   D16       -0.00419   0.00001   0.00000   0.00091   0.00099  -0.00320
   D17        0.01588  -0.00095   0.00000  -0.00771  -0.00761   0.00827
   D18       -3.13057  -0.00039   0.00000  -0.00426  -0.00434  -3.13491
   D19       -3.13258  -0.00058   0.00000  -0.00439  -0.00428  -3.13686
   D20        0.00416  -0.00003   0.00000  -0.00094  -0.00101   0.00315
   D21        0.00419  -0.00001   0.00000  -0.00091  -0.00099   0.00320
   D22       -3.13245  -0.00055   0.00000  -0.00436  -0.00430  -3.13676
   D23       -3.11533  -0.00039   0.00000  -0.00357  -0.00359  -3.11892
   D24        0.03122  -0.00092   0.00000  -0.00702  -0.00690   0.02431
   D25       -0.00783   0.00103   0.00000   0.00720   0.00702  -0.00082
   D26       -3.05863  -0.00025   0.00000  -0.00843  -0.00907  -3.06770
   D27        3.13868   0.00049   0.00000   0.00376   0.00372  -3.14079
   D28        0.08788  -0.00079   0.00000  -0.01187  -0.01236   0.07552
   D29       -0.00419   0.00001   0.00000   0.00091   0.00099  -0.00320
   D30        3.11533   0.00039   0.00000   0.00357   0.00359   3.11892
   D31        3.13245   0.00055   0.00000   0.00436   0.00430   3.13676
   D32       -0.03122   0.00092   0.00000   0.00702   0.00690  -0.02431
   D33       -0.00731  -0.00020   0.00000  -0.00028  -0.00015  -0.00746
   D34       -3.01035  -0.00032   0.00000  -0.01670  -0.01802  -3.02837
   D35        3.03589   0.00189   0.00000   0.01886   0.01905   3.05494
   D36        0.03285   0.00177   0.00000   0.00244   0.00118   0.03403
   D37       -0.00416   0.00003   0.00000   0.00094   0.00101  -0.00315
   D38        3.13057   0.00039   0.00000   0.00426   0.00434   3.13491
   D39        3.13258   0.00058   0.00000   0.00439   0.00428   3.13686
   D40       -0.01588   0.00095   0.00000   0.00771   0.00761  -0.00827
   D41       -3.13868  -0.00049   0.00000  -0.00376  -0.00372   3.14079
   D42       -0.08788   0.00079   0.00000   0.01187   0.01236  -0.07552
   D43        0.00783  -0.00103   0.00000  -0.00720  -0.00702   0.00082
   D44        3.05863   0.00025   0.00000   0.00843   0.00907   3.06770
   D45        0.00419  -0.00001   0.00000  -0.00091  -0.00099   0.00320
   D46       -3.13039  -0.00036   0.00000  -0.00424  -0.00436  -3.13475
   D47       -3.11558  -0.00036   0.00000  -0.00346  -0.00349  -3.11907
   D48        0.03303  -0.00070   0.00000  -0.00678  -0.00685   0.02617
   D49        0.00910  -0.00001   0.00000  -0.00128  -0.00137   0.00774
   D50       -3.09247  -0.00132   0.00000  -0.01111  -0.01112  -3.10359
   D51       -3.13945   0.00033   0.00000   0.00202   0.00197  -3.13747
   D52        0.04216  -0.00098   0.00000  -0.00781  -0.00778   0.03438
   D53        0.00731   0.00020   0.00000   0.00028   0.00015   0.00746
   D54        3.01035   0.00032   0.00000   0.01670   0.01802   3.02837
   D55       -3.03589  -0.00189   0.00000  -0.01886  -0.01905  -3.05494
   D56       -0.03285  -0.00177   0.00000  -0.00244  -0.00118  -0.03403
   D57        0.00603  -0.00081   0.00000  -0.00576  -0.00561   0.00042
   D58        3.07351  -0.00068   0.00000   0.00172   0.00239   3.07590
   D59        3.10420   0.00099   0.00000   0.00604   0.00579   3.11000
   D60       -0.11150   0.00112   0.00000   0.01352   0.01379  -0.09771
   D61       -0.01454   0.00076   0.00000   0.00644   0.00637  -0.00817
   D62       -3.07332  -0.00061   0.00000  -0.00575  -0.00594  -3.07926
   D63       -2.98193  -0.00479   0.00000  -0.03139  -0.03021  -3.01214
   D64        0.24248  -0.00615   0.00000  -0.04358  -0.04252   0.19996
         Item               Value     Threshold  Converged?
 Maximum Force            0.050258     0.000450     NO 
 RMS     Force            0.011288     0.000300     NO 
 Maximum Displacement     0.178737     0.001800     NO 
 RMS     Displacement     0.033853     0.001200     NO 
 Predicted change in Energy=-2.841602D-02
 Lowest energy point so far.  Saving SCF results.
 GradGradGradGradGradGradGradGradGradGradGradGradGradGradGradGradGradGrad

 Leave Link  103 at Sat Apr  4 19:34:36 2026, MaxMem=  2415919104 cpu:               0.1 elap:               0.1
 (Enter /opt/software/gaussian/g16_avx/g16/l202.exe)
                          Input orientation:                          
 ---------------------------------------------------------------------
 Center     Atomic      Atomic             Coordinates (Angstroms)
 Number     Number       Type             X           Y           Z
 ---------------------------------------------------------------------
      1          6           0       -1.587282    0.158992    3.374472
      2          6           0       -0.778261    0.936618    2.584826
      3          6           0       -0.377130    0.483158    1.276086
      4          6           0        0.446964    1.260284    0.442984
      5          6           0       -0.832369   -0.797622    0.823051
      6          6           0       -1.680002   -1.573007    1.690662
      7          6           0       -2.044880   -1.100714    2.923562
      8          1           0       -1.904055    0.601461    4.336858
      9          1           0       -0.379469    1.914602    2.920753
     10          1           0        0.774660    2.249743    0.787554
     11          1           0       -1.951584   -2.581400    1.340536
     12          1           0       -2.611672   -1.861216    3.536608
     13          6           0        0.832369    0.797622   -0.823051
     14          6           0       -0.446964   -1.260284   -0.442984
     15          6           0        0.377130   -0.483158   -1.276086
     16          6           0        1.680002    1.573007   -1.690662
     17          1           0       -0.774660   -2.249743   -0.787554
     18          6           0        0.778261   -0.936618   -2.584826
     19          6           0        2.044880    1.100714   -2.923562
     20          1           0        1.951584    2.581400   -1.340536
     21          6           0        1.587282   -0.158992   -3.374472
     22          1           0        0.379469   -1.914602   -2.920753
     23          1           0        2.611672    1.861216   -3.536608
     24          1           0        1.904055   -0.601461   -4.336858
 ---------------------------------------------------------------------
                    Distance matrix (angstroms):
                    1          2          3          4          5
     1  C    0.000000
     2  C    1.372137   0.000000
     3  C    2.443926   1.441989   0.000000
     4  C    3.734250   2.488659   1.406099   0.000000
     5  C    2.827499   2.472725   1.432788   2.452779   0.000000
     6  C    2.417361   2.812629   2.469244   3.756091   1.439601
     7  C    1.414063   2.422765   2.829173   4.235194   2.444217
     8  H    1.105581   2.109349   3.422545   4.596040   3.931002
     9  H    2.178725   1.108303   2.180359   2.692668   3.458559
    10  H    4.079480   2.714047   2.164741   1.097789   3.445321
    11  H    3.432107   3.911699   3.445951   4.617052   2.168477
    12  H    2.270881   3.477810   3.949586   5.354393   3.414754
    13  C    4.886897   3.771880   2.442981   1.401941   2.832986
    14  C    4.229379   3.755499   2.449423   2.817324   1.401941
    15  C    5.089103   4.272861   2.831300   2.449423   2.442981
    16  C    6.191136   4.972710   3.771095   2.484074   4.272077
    17  H    4.876968   4.639596   3.447519   3.914956   2.169339
    18  C    6.504567   5.714637   4.272861   3.755499   3.771880
    19  C    7.331077   6.191882   4.887183   3.729938   5.091106
    20  H    6.373613   5.056266   4.083165   2.681450   4.883574
    21  C    7.465067   6.504567   5.089103   4.229379   4.886897
    22  H    6.913592   6.307234   4.892357   4.625926   4.090509
    23  H    8.263886   7.058221   5.830438   4.569927   6.159340
    24  H    8.498960   7.580911   6.155107   5.332551   5.843899
                    6          7          8          9         10
     6  C    0.000000
     7  C    1.369759   0.000000
     8  H    3.432326   2.216898   0.000000
     9  H    3.920195   3.444668   2.460498   0.000000
    10  H    4.631888   4.872156   4.742352   2.448443   0.000000
    11  H    1.101454   2.169586   4.371590   5.018233   5.574776
    12  H    2.087724   1.129354   2.684381   4.429313   5.993707
    13  C    4.272077   5.091106   5.843899   4.090509   2.169339
    14  C    2.484074   3.729938   5.332551   4.625926   3.914956
    15  C    3.771095   4.887183   6.155107   4.892357   3.447519
    16  C    5.711425   6.504967   7.079573   5.061941   2.723815
    17  H    2.723815   4.087311   5.971975   5.590123   5.012656
    18  C    4.972710   6.191882   7.580911   6.307234   4.639596
    19  C    6.504967   7.467349   8.279918   6.379334   4.087311
    20  H    6.295686   6.907404   7.142752   4.902756   2.454366
    21  C    6.191136   7.331077   8.498960   6.913592   4.876968
    22  H    5.061941   6.379334   8.013611   7.025808   5.590123
    23  H    7.585295   8.496488   9.163527   7.116691   4.714228
    24  H    7.079573   8.279918   9.548929   8.013611   5.971975
                   11         12         13         14         15
    11  H    0.000000
    12  H    2.403562   0.000000
    13  C    4.883574   6.159340   0.000000
    14  C    2.681450   4.569927   2.452779   0.000000
    15  C    4.083165   5.830438   1.432788   1.406099   0.000000
    16  C    6.295686   7.585295   1.439601   3.756091   2.469244
    17  H    2.454366   4.714228   3.445321   1.097789   2.164741
    18  C    5.056266   7.058221   2.472725   2.488659   1.441989
    19  C    6.907404   8.496488   2.444217   4.235194   2.829173
    20  H    7.005524   8.021638   2.168477   4.617052   3.445951
    21  C    6.373613   8.263886   2.827499   3.734250   2.443926
    22  H    4.902756   7.116691   3.458559   2.692668   2.180359
    23  H    8.021638   9.548309   3.414754   5.354393   3.949586
    24  H    7.142752   9.163527   3.931002   4.596040   3.422545
                   16         17         18         19         20
    16  C    0.000000
    17  H    4.631888   0.000000
    18  C    2.812629   2.714047   0.000000
    19  C    1.369759   4.872156   2.422765   0.000000
    20  H    1.101454   5.574776   3.911699   2.169586   0.000000
    21  C    2.417361   4.079480   1.372137   1.414063   3.432107
    22  H    3.920195   2.448443   1.108303   3.444668   5.018233
    23  H    2.087724   5.993707   3.477810   1.129354   2.403562
    24  H    3.432326   4.742352   2.109349   2.216898   4.371590
                   21         22         23         24
    21  C    0.000000
    22  H    2.178725   0.000000
    23  H    2.270881   4.429313   0.000000
    24  H    1.105581   2.460498   2.684381   0.000000
 Stoichiometry    C14H10
 Framework group  CI[X(C14H10)]
 Deg. of freedom    33
 Full point group                 CI      NOp   2
 RotChk:  IX=0 Diff= 0.00D+00
 Largest Abelian subgroup         CI      NOp   2
 Largest concise Abelian subgroup CI      NOp   2
[...]
    19  C    6.925979   8.496093   2.437672   4.230720   2.830174
    20  H    7.030365   8.009358   2.169244   4.620573   3.453382
    21  C    6.391135   8.284461   2.830056   3.725818   2.437707
    22  H    4.954812   7.193541   3.453277   2.705436   2.169186
    23  H    8.009358   9.542966   3.423062   5.314386   3.913733
    24  H    7.193582   9.213272   3.913623   4.609518   3.423062
                   16         17         18         19         20
    16  C    0.000000
    17  H    4.623233   0.000000
    18  C    2.817566   2.707261   0.000000
    19  C    1.369284   4.866544   2.428707   0.000000
    20  H    1.084941   5.567671   3.902503   2.137258   0.000000
    21  C    2.428634   4.069986   1.369313   1.427992   3.419028
    22  H    3.902477   2.477379   1.084916   3.419090   4.987411
    23  H    2.132143   5.930956   3.398809   1.083762   2.469272
    24  H    3.398769   4.772973   2.132111   2.173768   4.300956
                   21         22         23         24
    21  C    0.000000
    22  H    2.137309   0.000000
    23  H    2.173742   4.300987   0.000000
    24  H    1.083768   2.469267   2.486473   0.000000
 Stoichiometry    C14H10
 Framework group  CI[X(C14H10)]
 Deg. of freedom    33
 Full point group                 CI      NOp   2
 RotChk:  IX=0 Diff= 0.00D+00
 Largest Abelian subgroup         CI      NOp   2
 Largest concise Abelian subgroup CI      NOp   2
                         Standard orientation:                         
 ---------------------------------------------------------------------
 Center     Atomic      Atomic             Coordinates (Angstroms)
 Number     Number       Type             X           Y           Z
 ---------------------------------------------------------------------
      1          6           0       -1.579330    0.154319    3.375436
      2          6           0       -0.785240    0.934955    2.578539
      3          6           0       -0.378196    0.487252    1.280479
      4          6           0        0.433403    1.262758    0.442522
      5          6           0       -0.824318   -0.812447    0.825037
      6          6           0       -1.653570   -1.594611    1.691990
      7          6           0       -2.019396   -1.127724    2.926140
      8          1           0       -1.881043    0.503768    4.355951
      9          1           0       -0.449176    1.909461    2.916832
     10          1           0        0.768092    2.237595    0.784229
     11          1           0       -1.986222   -2.568169    1.347568
     12          1           0       -2.647243   -1.728610    3.573663
     13          6           0        0.824318    0.812447   -0.825037
     14          6           0       -0.433403   -1.262758   -0.442522
     15          6           0        0.378196   -0.487252   -1.280479
     16          6           0        1.653570    1.594611   -1.691990
     17          1           0       -0.768092   -2.237595   -0.784229
     18          6           0        0.785240   -0.934955   -2.578539
     19          6           0        2.019396    1.127724   -2.926140
     20          1           0        1.986222    2.568169   -1.347568
     21          6           0        1.579330   -0.154319   -3.375436
     22          1           0        0.449176   -1.909461   -2.916832
     23          1           0        2.647243    1.728610   -3.573663
     24          1           0        1.881043   -0.503768   -4.355951
 ---------------------------------------------------------------------
 Rotational constants (GHZ):           2.1398041           0.4508876           0.3724145
 Leave Link  202 at Sat Apr  4 19:35:45 2026, MaxMem=  2415919104 cpu:               0.1 elap:               0.0
 (Enter /opt/software/gaussian/g16_avx/g16/l601.exe)
 Copying SCF densities to generalized density rwf, IOpCl= 0 IROHF=0.

 **********************************************************************

            Population analysis using the SCF Density.

 **********************************************************************

 Orbital symmetries:
       Occupied  (AG) (AU) (AU) (AG) (AU) (AG) (AG) (AU) (AU) (AG)
                 (AG) (AU) (AU) (AG) (AG) (AU) (AG) (AU) (AG) (AU)
                 (AU) (AG) (AG) (AG) (AU) (AU) (AU) (AG) (AG) (AG)
                 (AU) (AU) (AG) (AU) (AU) (AU) (AG) (AU) (AG) (AU)
                 (AG) (AG) (AU) (AG) (AU) (AG) (AG)
       Virtual   (AU) (AU) (AG) (AU) (AG) (AG) (AU) (AU) (AU) (AG)
                 (AG) (AU) (AU) (AG) (AG) (AG) (AU) (AG) (AU) (AG)
                 (AU) (AG) (AU) (AU) (AG) (AU) (AG) (AU) (AG) (AG)
                 (AG) (AU) (AU) (AU) (AG) (AU) (AG) (AU) (AG) (AG)
                 (AU) (AG) (AU) (AG) (AU) (AG) (AU) (AG) (AU) (AU)
                 (AG) (AG) (AU) (AU) (AU) (AG) (AG) (AG) (AG) (AU)
                 (AU) (AU) (AU) (AG) (AG) (AG) (AG) (AU) (AG) (AU)
                 (AU) (AG) (AG) (AG) (AU) (AU) (AU) (AG) (AG) (AU)
                 (AG) (AU) (AU) (AU) (AU) (AG) (AG) (AU) (AU) (AG)
                 (AG) (AU) (AG) (AG) (AU) (AG) (AU) (AG) (AU)
 The electronic state is 1-AG.
 Alpha  occ. eigenvalues --  -10.14311 -10.14311 -10.14199 -10.14195 -10.13255
 Alpha  occ. eigenvalues --  -10.13254 -10.13239 -10.13238 -10.13208 -10.13192
 Alpha  occ. eigenvalues --  -10.13133 -10.13132 -10.13037 -10.13028  -0.88650
 Alpha  occ. eigenvalues --   -0.85583  -0.80799  -0.78873  -0.75687  -0.74324
 Alpha  occ. eigenvalues --   -0.70961  -0.65147  -0.62447  -0.60797  -0.59713
 Alpha  occ. eigenvalues --   -0.54522  -0.53220  -0.51335  -0.47250  -0.46898
 Alpha  occ. eigenvalues --   -0.45691  -0.45636  -0.43304  -0.42344  -0.41772
 Alpha  occ. eigenvalues --   -0.40437  -0.39625  -0.38486  -0.36531  -0.35268
 Alpha  occ. eigenvalues --   -0.34342  -0.33156  -0.30643  -0.30194  -0.25947
 Alpha  occ. eigenvalues --   -0.24279  -0.19649
 Alpha virt. eigenvalues --   -0.06092  -0.01000   0.00910   0.04973   0.06902
 Alpha virt. eigenvalues --    0.11395   0.11705   0.12714   0.15732   0.15734
 Alpha virt. eigenvalues --    0.16488   0.18840   0.19379   0.20001   0.20189
 Alpha virt. eigenvalues --    0.22036   0.22902   0.24727   0.27701   0.27968
 Alpha virt. eigenvalues --    0.31759   0.32364   0.33020   0.34489   0.36451
 Alpha virt. eigenvalues --    0.38216   0.42777   0.47183   0.50780   0.55574
 Alpha virt. eigenvalues --    0.56899   0.57780   0.63121   0.63230   0.66243
 Alpha virt. eigenvalues --    0.67560   0.69744   0.71510   0.72155   0.72965
 Alpha virt. eigenvalues --    0.73574   0.73915   0.74252   0.74822   0.78308
 Alpha virt. eigenvalues --    0.78711   0.78757   0.80420   0.80916   0.80976
 Alpha virt. eigenvalues --    0.81371   0.81802   0.84469   0.85972   0.87052
 Alpha virt. eigenvalues --    0.88889   0.89377   0.90520   0.96959   0.97308
 Alpha virt. eigenvalues --    0.97441   0.98948   1.01647   1.02377   1.02677
 Alpha virt. eigenvalues --    1.04006   1.04431   1.07778   1.15249   1.19016
 Alpha virt. eigenvalues --    1.19419   1.25239   1.30658   1.32453   1.32497
 Alpha virt. eigenvalues --    1.34866   1.36461   1.42788   1.42998   1.44167
 Alpha virt. eigenvalues --    1.49193   1.49606   1.50915   1.52353   1.52397
 Alpha virt. eigenvalues --    1.52505   1.52765   1.55826   1.61915   1.62252
 Alpha virt. eigenvalues --    1.76977   1.82030   1.91091   1.93696   1.94868
 Alpha virt. eigenvalues --    2.01341   2.40072   2.47739   2.51920
          Condensed to atoms (all electrons):
               1          2          3          4          5          6
     1  C    5.140987   0.491269  -0.081302   0.003113  -0.015261  -0.083844
     2  C    0.491269   5.152902   0.410047  -0.063700  -0.061219  -0.024236
     3  C   -0.081302   0.410047   5.112054   0.454144   0.416690  -0.061196
     4  C    0.003113  -0.063700   0.454144   5.185134  -0.069219   0.004264
     5  C   -0.015261  -0.061219   0.416690  -0.069219   5.112045   0.410081
     6  C   -0.083844  -0.024236  -0.061196   0.004264   0.410081   5.152894
     7  C    0.416194  -0.083825  -0.015259   0.000134  -0.081310   0.491254
     8  H    0.388821  -0.040187   0.004047  -0.000063  -0.000108   0.003825
     9  H   -0.038048   0.390714  -0.045690  -0.002493   0.003377  -0.000133
    10  H    0.000101  -0.002657  -0.042719   0.390044   0.003464  -0.000077
    11  H    0.003684  -0.000133   0.003375  -0.000068  -0.045682   0.390713
    12  H   -0.039992   0.003825  -0.000108   0.000000   0.004047  -0.040180
    13  C   -0.000145   0.003405  -0.083402   0.454117  -0.010868   0.000162
    14  C    0.000134   0.004266  -0.069242  -0.030157   0.454117  -0.063702
    15  C    0.000010   0.000162  -0.010866  -0.069242  -0.083402   0.003405
    16  C    0.000000  -0.000072   0.003405  -0.063702   0.000162  -0.000000
    17  H    0.000008  -0.000077   0.003465  -0.000027  -0.042720  -0.002656
    18  C   -0.000000  -0.000000   0.000162   0.004266   0.003405  -0.000072
    19  C   -0.000000   0.000000  -0.000145   0.003114   0.000010  -0.000000
    20  H    0.000000  -0.000001   0.000090  -0.002493   0.000003  -0.000000
    21  C   -0.000000  -0.000000   0.000010   0.000134  -0.000145   0.000000
    22  H    0.000000  -0.000000   0.000003  -0.000068   0.000090  -0.000001
    23  H    0.000000  -0.000000   0.000000  -0.000063   0.000000   0.000000
    24  H   -0.000000   0.000000   0.000000   0.000000   0.000000  -0.000000
               7          8          9         10         11         12
     1  C    0.416194   0.388821  -0.038048   0.000101   0.003684  -0.039992
     2  C   -0.083825  -0.040187   0.390714  -0.002657  -0.000133   0.003825
     3  C   -0.015259   0.004047  -0.045690  -0.042719   0.003375  -0.000108
     4  C    0.000134  -0.000063  -0.002493   0.390044  -0.000068   0.000000
     5  C   -0.081310  -0.000108   0.003377   0.003464  -0.045682   0.004047
     6  C    0.491254   0.003825  -0.000133  -0.000077   0.390713  -0.040180
     7  C    5.141011  -0.039991   0.003683   0.000008  -0.038055   0.388826
     8  H   -0.039991   0.503399  -0.004083  -0.000002  -0.000051  -0.003403
     9  H    0.003683  -0.004083   0.504360   0.003788   0.000003  -0.000051
    10  H    0.000008  -0.000002   0.003788   0.506117   0.000001  -0.000000
    11  H   -0.038055  -0.000051   0.000003   0.000001   0.504360  -0.004083
    12  H    0.388826  -0.003403  -0.000051  -0.000000  -0.004083   0.503381
    13  C    0.000010   0.000000   0.000090  -0.042720   0.000003   0.000000
    14  C    0.003114   0.000000  -0.000068  -0.000027  -0.002493  -0.000063
    15  C   -0.000145   0.000000   0.000003   0.003465   0.000090   0.000000
    16  C   -0.000000  -0.000000  -0.000001  -0.002656  -0.000000   0.000000
    17  H    0.000101  -0.000000   0.000001   0.000005   0.003787  -0.000002
    18  C    0.000000   0.000000  -0.000000  -0.000077  -0.000001  -0.000000
    19  C   -0.000000   0.000000   0.000000   0.000101   0.000000  -0.000000
    20  H    0.000000  -0.000000   0.000001   0.003787   0.000000   0.000000
    21  C   -0.000000  -0.000000   0.000000   0.000008   0.000000   0.000000
    22  H    0.000000   0.000000   0.000000   0.000001   0.000001  -0.000000
    23  H   -0.000000  -0.000000  -0.000000  -0.000002   0.000000   0.000000
    24  H    0.000000   0.000000   0.000000  -0.000000  -0.000000  -0.000000
              13         14         15         16         17         18
     1  C   -0.000145   0.000134   0.000010   0.000000   0.000008  -0.000000
     2  C    0.003405   0.004266   0.000162  -0.000072  -0.000077  -0.000000
     3  C   -0.083402  -0.069242  -0.010866   0.003405   0.003465   0.000162
     4  C    0.454117  -0.030157  -0.069242  -0.063702  -0.000027   0.004266
     5  C   -0.010868   0.454117  -0.083402   0.000162  -0.042720   0.003405
     6  C    0.000162  -0.063702   0.003405  -0.000000  -0.002656  -0.000072
     7  C    0.000010   0.003114  -0.000145  -0.000000   0.000101   0.000000
     8  H    0.000000   0.000000   0.000000  -0.000000  -0.000000   0.000000
     9  H    0.000090  -0.000068   0.000003  -0.000001   0.000001  -0.000000
    10  H   -0.042720  -0.000027   0.003465  -0.002656   0.000005  -0.000077
    11  H    0.000003  -0.002493   0.000090  -0.000000   0.003787  -0.000001
    12  H    0.000000  -0.000063   0.000000   0.000000  -0.000002  -0.000000
    13  C    5.112045  -0.069219   0.416690   0.410081   0.003464  -0.061219
    14  C   -0.069219   5.185134   0.454144   0.004264   0.390044  -0.063700
    15  C    0.416690   0.454144   5.112054  -0.061196  -0.042719   0.410047
    16  C    0.410081   0.004264  -0.061196   5.152894  -0.000077  -0.024236
    17  H    0.003464   0.390044  -0.042719  -0.000077   0.506117  -0.002657
    18  C   -0.061219  -0.063700   0.410047  -0.024236  -0.002657   5.152902
    19  C   -0.081310   0.000134  -0.015259   0.491254   0.000008  -0.083825
    20  H   -0.045682  -0.000068   0.003375   0.390713   0.000001  -0.000133
    21  C   -0.015261   0.003113  -0.081302  -0.083844   0.000101   0.491269
    22  H    0.003377  -0.002493  -0.045690  -0.000133   0.003788   0.390714
    23  H    0.004047   0.000000  -0.000108  -0.040180  -0.000000   0.003825
    24  H   -0.000108  -0.000063   0.004047   0.003825  -0.000002  -0.040187
              19         20         21         22         23         24
     1  C   -0.000000   0.000000  -0.000000   0.000000   0.000000  -0.000000
     2  C    0.000000  -0.000001  -0.000000  -0.000000  -0.000000   0.000000
     3  C   -0.000145   0.000090   0.000010   0.000003   0.000000   0.000000
     4  C    0.003114  -0.002493   0.000134  -0.000068  -0.000063   0.000000
     5  C    0.000010   0.000003  -0.000145   0.000090   0.000000   0.000000
     6  C   -0.000000  -0.000000   0.000000  -0.000001   0.000000  -0.000000
     7  C   -0.000000   0.000000  -0.000000   0.000000  -0.000000   0.000000
     8  H    0.000000  -0.000000  -0.000000   0.000000  -0.000000   0.000000
     9  H    0.000000   0.000001   0.000000   0.000000  -0.000000   0.000000
    10  H    0.000101   0.003787   0.000008   0.000001  -0.000002  -0.000000
    11  H    0.000000   0.000000   0.000000   0.000001   0.000000  -0.000000
    12  H   -0.000000   0.000000   0.000000  -0.000000   0.000000  -0.000000
    13  C   -0.081310  -0.045682  -0.015261   0.003377   0.004047  -0.000108
    14  C    0.000134  -0.000068   0.003113  -0.002493   0.000000  -0.000063
    15  C   -0.015259   0.003375  -0.081302  -0.045690  -0.000108   0.004047
    16  C    0.491254   0.390713  -0.083844  -0.000133  -0.040180   0.003825
    17  H    0.000008   0.000001   0.000101   0.003788  -0.000000  -0.000002
    18  C   -0.083825  -0.000133   0.491269   0.390714   0.003825  -0.040187
    19  C    5.141011  -0.038055   0.416194   0.003683   0.388826  -0.039991
    20  H   -0.038055   0.504360   0.003684   0.000003  -0.004083  -0.000051
    21  C    0.416194   0.003684   5.140987  -0.038048  -0.039992   0.388821
    22  H    0.003683   0.000003  -0.038048   0.504360  -0.000051  -0.004083
    23  H    0.388826  -0.004083  -0.039992  -0.000051   0.503381  -0.003403
    24  H   -0.039991  -0.000051   0.388821  -0.004083  -0.003403   0.503399
 Mulliken charges:
               1
     1  C   -0.185729
     2  C   -0.180482
     3  C    0.002437
     4  C   -0.197169
     5  C    0.002443
     6  C   -0.180499
     7  C   -0.185749
     8  H    0.187797
     9  H    0.184549
    10  H    0.180050
    11  H    0.184549
    12  H    0.187803
    13  C    0.002443
    14  C   -0.197169
    15  C    0.002437
    16  C   -0.180499
    17  H    0.180050
    18  C   -0.180482
    19  C   -0.185749
    20  H    0.184549
    21  C   -0.185729
    22  H    0.184549
    23  H    0.187803
    24  H    0.187797
 Sum of Mulliken charges =  -0.00000
 Mulliken charges with hydrogens summed into heavy atoms:
               1
     1  C    0.002067
     2  C    0.004068
     3  C    0.002437
     4  C   -0.017119
     5  C    0.002443
     6  C    0.004050
     7  C    0.002054
    13  C    0.002443
    14  C   -0.017119
    15  C    0.002437
    16  C    0.004050
    18  C    0.004068
    19  C    0.002054
    21  C    0.002067
 Electronic spatial extent (au):  <R**2>=           2863.0910
 Charge=              0.0000 electrons
 Dipole moment (field-independent basis, Debye):
    X=              0.0000    Y=             -0.0000    Z=              0.0000  Tot=              0.0000
 Quadrupole moment (field-independent basis, Debye-Ang):
   XX=            -82.3773   YY=            -73.0592   ZZ=            -72.0967
   XY=              6.7420   XZ=             -6.7504   YZ=              3.1807
 Traceless Quadrupole moment (field-independent basis, Debye-Ang):
   XX=             -6.5329   YY=              2.7852   ZZ=              3.7477
   XY=              6.7420   XZ=             -6.7504   YZ=              3.1807
 Octapole moment (field-independent basis, Debye-Ang**2):
  XXX=              0.0000  YYY=             -0.0000  ZZZ=             -0.0000  XYY=              0.0000
  XXY=             -0.0000  XXZ=             -0.0000  XZZ=              0.0000  YZZ=              0.0000
  YYZ=             -0.0000  XYZ=             -0.0000
 Hexadecapole moment (field-independent basis, Debye-Ang**3):
 XXXX=           -930.3971 YYYY=           -631.1443 ZZZZ=          -2223.6261 XXXY=           -166.8655
 XXXZ=            607.2208 YYYX=           -150.3412 YYYZ=             91.2812 ZZZX=            461.0210
 ZZZY=            118.0049 XXYY=           -235.9409 XXZZ=           -487.7983 YYZZ=           -486.1692
 XXYZ=            -11.1423 YYXZ=            184.6974 ZZXY=            -36.4906
 N-N= 7.649409381912D+02 E-N=-2.771665868438D+03  KE= 5.319287750898D+02
 Symmetry AG   KE= 2.670464747991D+02
 Symmetry AU   KE= 2.648823002907D+02
 No NMR shielding tensors so no spin-rotation constants.
 Leave Link  601 at Sat Apr  4 19:35:45 2026, MaxMem=  2415919104 cpu:               0.3 elap:               0.1
 (Enter /opt/software/gaussian/g16_avx/g16/l9999.exe)
 Unable to Open any file for archive entry.
 1\1\GINC-WEE20\FOpt\RB3LYP\3-21G*\C14H10\YYB25113\04-Apr-2026\0\\#p op
 t B3LYP/3-21g*\\Molecule_ANTCEN_4c\\0,1\C,-1.5793303017,0.1543194172,3
 .3754363601\C,-0.7852397128,0.9349554792,2.5785392508\C,-0.3781961009,
 0.4872520167,1.280478549\C,0.4334032784,1.2627575869,0.4425216209\C,-0
 .8243175913,-0.8124469426,0.8250368306\C,-1.6535701807,-1.5946113572,1
 .6919900586\C,-2.0193959229,-1.1277242765,2.9261400479\H,-1.8810433047
 ,0.503768433,4.35595068\H,-0.4491755705,1.9094612483,2.916831803\H,0.7
 680924611,2.2375949544,0.7842287362\H,-1.9862220781,-2.5681687488,1.34
 75682361\H,-2.6472425109,-1.7286097313,3.5736627598\C,0.8243175913,0.8
 124469426,-0.8250368306\C,-0.4334032784,-1.2627575869,-0.4425216209\C,
 0.3781961009,-0.4872520167,-1.280478549\C,1.6535701807,1.5946113572,-1
 .6919900586\H,-0.7680924611,-2.2375949544,-0.7842287362\C,0.7852397128
 ,-0.9349554792,-2.5785392508\C,2.0193959229,1.1277242765,-2.9261400479
 \H,1.9862220781,2.5681687488,-1.3475682361\C,1.5793303017,-0.154319417
 2,-3.3754363601\H,0.4491755705,-1.9094612483,-2.916831803\H,2.64724251
 09,1.7286097313,-3.5736627598\H,1.8810433047,-0.503768433,-4.35595068\
 \Version=ES64L-G16RevC.01\State=1-AG\HF=-536.5602057\RMSD=7.845e-09\RM
 SF=4.412e-05\Dipole=0.,0.,0.\Quadrupole=-4.8570848,2.0707593,2.7863255
 ,5.0125466,-5.0187352,2.3648069\PG=CI [X(C14H10)]\\@
 The archive entry for this job was punched.


 THEORY:  SUPPOSITION WHICH HAS SCIENTIFIC BASIS,
          BUT NOT EXPERIMENTALLY PROVEN.
 FACT:    A THEORY WHICH HAS BEEN PROVEN BY ENOUGH 
          MONEY TO PAY FOR THE EXPERIMENTS.

                          --  THE WIZARD OF ID
 Job cpu time:       0 days  0 hours  5 minutes 20.9 seconds.
 Elapsed time:       0 days  0 hours  1 minutes 23.0 seconds.
 File lengths (MBytes):  RWF=     72 Int=      0 D2E=      0 Chk=      8 Scr=      8
 Normal termination of Gaussian 16 at Sat Apr  4 19:35:45 2026.
