 Entering Gaussian System, Link 0=g16
 Initial command:
 /opt/software/gaussian/g16_avx/g16/l1.exe "/users/yyb25113/CH934/16_Cores/Gau-2249094.inp" -scrdir="/users/yyb25113/CH934/16_Cores/"
 Entering Link 1 = /opt/software/gaussian/g16_avx/g16/l1.exe PID=   2249095.
  
 Copyright (c) 1988-2019, Gaussian, Inc.  All Rights Reserved.
  
 This is part of the Gaussian(R) 16 program.  It is based on
 the Gaussian(R) 09 system (copyright 2009, Gaussian, Inc.),
 the Gaussian(R) 03 system (copyright 2003, Gaussian, Inc.),
 the Gaussian(R) 98 system (copyright 1998, Gaussian, Inc.),
 the Gaussian(R) 94 system (copyright 1995, Gaussian, Inc.),
 the Gaussian 92(TM) system (copyright 1992, Gaussian, Inc.),
 the Gaussian 90(TM) system (copyright 1990, Gaussian, Inc.),
 the Gaussian 88(TM) system (copyright 1988, Gaussian, Inc.),
 the Gaussian 86(TM) system (copyright 1986, Carnegie Mellon
 University), and the Gaussian 82(TM) system (copyright 1983,
 Carnegie Mellon University). Gaussian is a federally registered
 trademark of Gaussian, Inc.
  
 This software contains proprietary and confidential information,
 including trade secrets, belonging to Gaussian, Inc.
  
 This software is provided under written license and may be
 used, copied, transmitted, or stored only in accord with that
 written license.
  
 The following legend is applicable only to US Government
 contracts under FAR:
  
                    RESTRICTED RIGHTS LEGEND
  
 Use, reproduction and disclosure by the US Government is
 subject to restrictions as set forth in subparagraphs (a)
 and (c) of the Commercial Computer Software - Restricted
 Rights clause in FAR 52.227-19.
  
 Gaussian, Inc.
 340 Quinnipiac St., Bldg. 40, Wallingford CT 06492
  
  
 ---------------------------------------------------------------
 Warning -- This program may not be used in any manner that
 competes with the business of Gaussian, Inc. or will provide
 assistance to any competitor of Gaussian, Inc.  The licensee
 of this program is prohibited from giving any competitor of
 Gaussian, Inc. access to this program.  By using this program,
 the user acknowledges that Gaussian, Inc. is engaged in the
 business of creating and licensing software in the field of
 computational chemistry and represents and warrants to the
 licensee that it is not a competitor of Gaussian, Inc. and that
 it will not use this program in any manner prohibited above.
 ---------------------------------------------------------------
  

 Cite this work as:
 Gaussian 16, Revision C.01,
 M. J. Frisch, G. W. Trucks, H. B. Schlegel, G. E. Scuseria, 
 M. A. Robb, J. R. Cheeseman, G. Scalmani, V. Barone, 
 G. A. Petersson, H. Nakatsuji, X. Li, M. Caricato, A. V. Marenich, 
 J. Bloino, B. G. Janesko, R. Gomperts, B. Mennucci, H. P. Hratchian, 
 J. V. Ortiz, A. F. Izmaylov, J. L. Sonnenberg, D. Williams-Young, 
 F. Ding, F. Lipparini, F. Egidi, J. Goings, B. Peng, A. Petrone, 
 T. Henderson, D. Ranasinghe, V. G. Zakrzewski, J. Gao, N. Rega, 
 G. Zheng, W. Liang, M. Hada, M. Ehara, K. Toyota, R. Fukuda, 
 J. Hasegawa, M. Ishida, T. Nakajima, Y. Honda, O. Kitao, H. Nakai, 
 T. Vreven, K. Throssell, J. A. Montgomery, Jr., J. E. Peralta, 
 F. Ogliaro, M. J. Bearpark, J. J. Heyd, E. N. Brothers, K. N. Kudin, 
 V. N. Staroverov, T. A. Keith, R. Kobayashi, J. Normand, 
 K. Raghavachari, A. P. Rendell, J. C. Burant, S. S. Iyengar, 
 J. Tomasi, M. Cossi, J. M. Millam, M. Klene, C. Adamo, R. Cammi, 
 J. W. Ochterski, R. L. Martin, K. Morokuma, O. Farkas, 
 J. B. Foresman, and D. J. Fox, Gaussian, Inc., Wallingford CT, 2019.
 
 ******************************************
 Gaussian 16:  ES64L-G16RevC.01  3-Jul-2019
                 4-Apr-2026 
 ******************************************
 %nprocshared=16
 Will use up to   16 processors via shared memory.
 %mem=18GB
 %chk=Molecule_PENCEN.chk
 -------------------
 #p opt B3LYP/3-21g*
 -------------------
 1/18=20,19=15,26=3,38=1/1,3;
 2/9=110,12=2,17=6,18=5,40=1/2;
 3/5=5,7=1,11=2,25=1,30=1,71=1,74=-5/1,2,3;
 4//1;
 5/5=2,38=5/2;
 6/7=2,8=2,9=2,10=2,28=1/1;
 7//1,2,3,16;
 1/18=20,19=15,26=3/3(2);
 2/9=110/2;
 99//99;
 2/9=110/2;
 3/5=5,7=1,11=2,25=1,30=1,71=1,74=-5/1,2,3;
 4/5=5,16=3,69=1/1;
 5/5=2,38=5/2;
 7//1,2,3,16;
 1/18=20,19=15,26=3/3(-5);
 2/9=110/2;
 6/7=2,8=2,9=2,10=2,19=2,28=1/1;
 99/9=1/99;
 Leave Link    1 at Sat Apr  4 20:58:29 2026, MaxMem=  2415919104 cpu:              18.3 elap:               1.2
 (Enter /opt/software/gaussian/g16_avx/g16/l101.exe)
 -------------------
 Molecule_PENCEN_16c
 -------------------
 Symbolic Z-matrix:
 Charge =  0 Multiplicity = 1
 C                    -1.3242   -1.0531    5.9036 
 C                    -1.9511   -2.3883    4.0401 
 C                    -1.95     -2.1472    5.3743 
 C                    -0.7389   -0.1753    5.0625 
 C                    -0.7026   -0.3518    3.637 
 C                    -0.0856    0.4558    2.7466 
 C                    -0.0904    0.3032    1.3776 
 C                     0.6176    1.1704    0.4858 
 C                    -0.5826   -0.9036    0.8222 
 C                    -1.2835   -1.7553    1.7764 
 C                    -1.271    -1.5305    3.1164 
 H                    -1.3311   -0.8519    6.9898 
 H                    -2.4053   -3.2981    3.6399 
 H                    -2.4441   -2.8444    6.0907 
 H                    -0.2026    0.7192    5.3656 
 H                     0.397     1.3169    3.1613 
 H                     1.0652    2.0135    0.8846 
 H                    -1.7421   -2.6674    1.4212 
 C                     0.5826    0.9036   -0.8222 
 C                    -0.6176   -1.1704   -0.4858 
 C                     0.0904   -0.3032   -1.3776 
 C                     1.2835    1.7553   -1.7764 
 H                    -1.0652   -2.0135   -0.8846 
 C                     0.0856   -0.4558   -2.7466 
 C                     1.271     1.5305   -3.1164 
 H                     1.7421    2.6674   -1.4212 
 C                     0.7026    0.3518   -3.637 
 H                    -0.397    -1.3169   -3.1613 
 C                     1.9511    2.3883   -4.0401 
 C                     0.7389    0.1753   -5.0625 
 C                     1.95      2.1472   -5.3743 
 H                     2.4053    3.2981   -3.6399 
 C                     1.3242    1.0531   -5.9036 
 H                     0.2026   -0.7192   -5.3656 
 H                     2.4441    2.8444   -6.0907 
 H                     1.3311    0.8519   -6.9898 
 
 ITRead=  0  0  0  0  0  0  0  0  0  0  0  0  0  0  0  0  0  0  0  0
 ITRead=  0  0  0  0  0  0  0  0  0  0  0  0  0  0  0  0
 MicOpt= -1 -1 -1 -1 -1 -1 -1 -1 -1 -1 -1 -1 -1 -1 -1 -1 -1 -1 -1 -1
 MicOpt= -1 -1 -1 -1 -1 -1 -1 -1 -1 -1 -1 -1 -1 -1 -1 -1
 NAtoms=     36 NQM=       36 NQMF=       0 NMMI=      0 NMMIF=      0
                NMic=       0 NMicF=      0.
                    Isotopes and Nuclear Properties:
 (Nuclear quadrupole moments (NQMom) in fm**2, nuclear magnetic moments (NMagM)
  in nuclear magnetons)

  Atom         1           2           3           4           5           6           7           8           9          10
 IAtWgt=          12          12          12          12          12          12          12          12          12          12
 AtmWgt=  12.0000000  12.0000000  12.0000000  12.0000000  12.0000000  12.0000000  12.0000000  12.0000000  12.0000000  12.0000000
 NucSpn=           0           0           0           0           0           0           0           0           0           0
 AtZEff=  -0.0000000  -0.0000000  -0.0000000  -0.0000000  -0.0000000  -0.0000000  -0.0000000  -0.0000000  -0.0000000  -0.0000000
 NQMom=    0.0000000   0.0000000   0.0000000   0.0000000   0.0000000   0.0000000   0.0000000   0.0000000   0.0000000   0.0000000
 NMagM=    0.0000000   0.0000000   0.0000000   0.0000000   0.0000000   0.0000000   0.0000000   0.0000000   0.0000000   0.0000000
 AtZNuc=   6.0000000   6.0000000   6.0000000   6.0000000   6.0000000   6.0000000   6.0000000   6.0000000   6.0000000   6.0000000

  Atom        11          12          13          14          15          16          17          18          19          20
 IAtWgt=          12           1           1           1           1           1           1           1          12          12
 AtmWgt=  12.0000000   1.0078250   1.0078250   1.0078250   1.0078250   1.0078250   1.0078250   1.0078250  12.0000000  12.0000000
 NucSpn=           0           1           1           1           1           1           1           1           0           0
 AtZEff=  -0.0000000  -0.0000000  -0.0000000  -0.0000000  -0.0000000  -0.0000000  -0.0000000  -0.0000000  -0.0000000  -0.0000000
 NQMom=    0.0000000   0.0000000   0.0000000   0.0000000   0.0000000   0.0000000   0.0000000   0.0000000   0.0000000   0.0000000
 NMagM=    0.0000000   2.7928460   2.7928460   2.7928460   2.7928460   2.7928460   2.7928460   2.7928460   0.0000000   0.0000000
 AtZNuc=   6.0000000   1.0000000   1.0000000   1.0000000   1.0000000   1.0000000   1.0000000   1.0000000   6.0000000   6.0000000

  Atom        21          22          23          24          25          26          27          28          29          30
 IAtWgt=          12          12           1          12          12           1          12           1          12          12
 AtmWgt=  12.0000000  12.0000000   1.0078250  12.0000000  12.0000000   1.0078250  12.0000000   1.0078250  12.0000000  12.0000000
 NucSpn=           0           0           1           0           0           1           0           1           0           0
 AtZEff=  -0.0000000  -0.0000000  -0.0000000  -0.0000000  -0.0000000  -0.0000000  -0.0000000  -0.0000000  -0.0000000  -0.0000000
 NQMom=    0.0000000   0.0000000   0.0000000   0.0000000   0.0000000   0.0000000   0.0000000   0.0000000   0.0000000   0.0000000
 NMagM=    0.0000000   0.0000000   2.7928460   0.0000000   0.0000000   2.7928460   0.0000000   2.7928460   0.0000000   0.0000000
 AtZNuc=   6.0000000   6.0000000   1.0000000   6.0000000   6.0000000   1.0000000   6.0000000   1.0000000   6.0000000   6.0000000

  Atom        31          32          33          34          35          36
 IAtWgt=          12           1          12           1           1           1
 AtmWgt=  12.0000000   1.0078250  12.0000000   1.0078250   1.0078250   1.0078250
 NucSpn=           0           1           0           1           1           1
 AtZEff=  -0.0000000  -0.0000000  -0.0000000  -0.0000000  -0.0000000  -0.0000000
 NQMom=    0.0000000   0.0000000   0.0000000   0.0000000   0.0000000   0.0000000
 NMagM=    0.0000000   2.7928460   0.0000000   2.7928460   2.7928460   2.7928460
 AtZNuc=   6.0000000   1.0000000   6.0000000   1.0000000   1.0000000   1.0000000
 Leave Link  101 at Sat Apr  4 20:58:30 2026, MaxMem=  2415919104 cpu:               5.5 elap:               0.4
 (Enter /opt/software/gaussian/g16_avx/g16/l103.exe)

 GradGradGradGradGradGradGradGradGradGradGradGradGradGradGradGradGradGrad
 Berny optimization.
 Initialization pass.
                           ----------------------------
                           !    Initial Parameters    !
                           ! (Angstroms and Degrees)  !
 --------------------------                            --------------------------
 ! Name  Definition              Value          Derivative Info.                !
 --------------------------------------------------------------------------------
 ! R1    R(1,3)                  1.3671         estimate D2E/DX2                !
 ! R2    R(1,4)                  1.3493         estimate D2E/DX2                !
 ! R3    R(1,12)                 1.1047         estimate D2E/DX2                !
 ! R4    R(2,3)                  1.3558         estimate D2E/DX2                !
 ! R5    R(2,11)                 1.4323         estimate D2E/DX2                !
 ! R6    R(2,13)                 1.0928         estimate D2E/DX2                !
 ! R7    R(3,14)                 1.1151         estimate D2E/DX2                !
 ! R8    R(4,5)                  1.4368         estimate D2E/DX2                !
 ! R9    R(4,15)                 1.0861         estimate D2E/DX2                !
 ! R10   R(5,6)                  1.3512         estimate D2E/DX2                !
 ! R11   R(5,11)                 1.4083         estimate D2E/DX2                !
 ! R12   R(6,7)                  1.3775         estimate D2E/DX2                !
 ! R13   R(6,16)                 1.0707         estimate D2E/DX2                !
 ! R14   R(7,8)                  1.4313         estimate D2E/DX2                !
 ! R15   R(7,9)                  1.4167         estimate D2E/DX2                !
 ! R16   R(8,17)                 1.0345         estimate D2E/DX2                !
 ! R17   R(8,19)                 1.3354         estimate D2E/DX2                !
 ! R18   R(9,10)                 1.4585         estimate D2E/DX2                !
 ! R19   R(9,20)                 1.3354         estimate D2E/DX2                !
 ! R20   R(10,11)                1.3588         estimate D2E/DX2                !
 ! R21   R(10,18)                1.0809         estimate D2E/DX2                !
 ! R22   R(19,21)                1.4167         estimate D2E/DX2                !
 ! R23   R(19,22)                1.4585         estimate D2E/DX2                !
 ! R24   R(20,21)                1.4313         estimate D2E/DX2                !
 ! R25   R(20,23)                1.0345         estimate D2E/DX2                !
 ! R26   R(21,24)                1.3775         estimate D2E/DX2                !
 ! R27   R(22,25)                1.3588         estimate D2E/DX2                !
 ! R28   R(22,26)                1.0809         estimate D2E/DX2                !
 ! R29   R(24,27)                1.3512         estimate D2E/DX2                !
 ! R30   R(24,28)                1.0707         estimate D2E/DX2                !
 ! R31   R(25,27)                1.4083         estimate D2E/DX2                !
 ! R32   R(25,29)                1.4323         estimate D2E/DX2                !
 ! R33   R(27,30)                1.4368         estimate D2E/DX2                !
 ! R34   R(29,31)                1.3558         estimate D2E/DX2                !
 ! R35   R(29,32)                1.0928         estimate D2E/DX2                !
 ! R36   R(30,33)                1.3493         estimate D2E/DX2                !
 ! R37   R(30,34)                1.0861         estimate D2E/DX2                !
 ! R38   R(31,33)                1.3671         estimate D2E/DX2                !
 ! R39   R(31,35)                1.1151         estimate D2E/DX2                !
 ! R40   R(33,36)                1.1047         estimate D2E/DX2                !
 ! A1    A(3,1,4)              118.5477         estimate D2E/DX2                !
 ! A2    A(3,1,12)             121.5744         estimate D2E/DX2                !
 ! A3    A(4,1,12)             119.8117         estimate D2E/DX2                !
 ! A4    A(3,2,11)             121.8522         estimate D2E/DX2                !
 ! A5    A(3,2,13)             120.5818         estimate D2E/DX2                !
 ! A6    A(11,2,13)            117.3728         estimate D2E/DX2                !
 ! A7    A(1,3,2)              121.581          estimate D2E/DX2                !
 ! A8    A(1,3,14)             117.032          estimate D2E/DX2                !
 ! A9    A(2,3,14)             121.3772         estimate D2E/DX2                !
 ! A10   A(1,4,5)              123.3322         estimate D2E/DX2                !
 ! A11   A(1,4,15)             125.172          estimate D2E/DX2                !
 ! A12   A(5,4,15)             111.4422         estimate D2E/DX2                !
 ! A13   A(4,5,6)              126.2911         estimate D2E/DX2                !
 ! A14   A(4,5,11)             117.345          estimate D2E/DX2                !
 ! A15   A(6,5,11)             116.1637         estimate D2E/DX2                !
 ! A16   A(5,6,7)              125.9521         estimate D2E/DX2                !
 ! A17   A(5,6,16)             115.549          estimate D2E/DX2                !
 ! A18   A(7,6,16)             118.3985         estimate D2E/DX2                !
 ! A19   A(6,7,8)              123.3937         estimate D2E/DX2                !
 ! A20   A(6,7,9)              119.0252         estimate D2E/DX2                !
 ! A21   A(8,7,9)              116.3401         estimate D2E/DX2                !
 ! A22   A(7,8,17)             117.8794         estimate D2E/DX2                !
 ! A23   A(7,8,19)             118.4425         estimate D2E/DX2                !
 ! A24   A(17,8,19)            123.4876         estimate D2E/DX2                !
 ! A25   A(7,9,10)             114.0738         estimate D2E/DX2                !
 ! A26   A(7,9,20)             124.2832         estimate D2E/DX2                !
 ! A27   A(10,9,20)            120.7676         estimate D2E/DX2                !
 ! A28   A(9,10,11)            122.9678         estimate D2E/DX2                !
 ! A29   A(9,10,18)            118.7937         estimate D2E/DX2                !
 ! A30   A(11,10,18)           117.8766         estimate D2E/DX2                !
 ! A31   A(2,11,5)             117.0313         estimate D2E/DX2                !
 ! A32   A(2,11,10)            122.1765         estimate D2E/DX2                !
 ! A33   A(5,11,10)            120.4457         estimate D2E/DX2                !
 ! A34   A(8,19,21)            124.2832         estimate D2E/DX2                !
 ! A35   A(8,19,22)            120.7676         estimate D2E/DX2                !
 ! A36   A(21,19,22)           114.0738         estimate D2E/DX2                !
 ! A37   A(9,20,21)            118.4425         estimate D2E/DX2                !
 ! A38   A(9,20,23)            123.4876         estimate D2E/DX2                !
 ! A39   A(21,20,23)           117.8794         estimate D2E/DX2                !
 ! A40   A(19,21,20)           116.3401         estimate D2E/DX2                !
 ! A41   A(19,21,24)           119.0252         estimate D2E/DX2                !
 ! A42   A(20,21,24)           123.3937         estimate D2E/DX2                !
 ! A43   A(19,22,25)           122.9678         estimate D2E/DX2                !
 ! A44   A(19,22,26)           118.7937         estimate D2E/DX2                !
 ! A45   A(25,22,26)           117.8766         estimate D2E/DX2                !
 ! A46   A(21,24,27)           125.9521         estimate D2E/DX2                !
 ! A47   A(21,24,28)           118.3985         estimate D2E/DX2                !
 ! A48   A(27,24,28)           115.549          estimate D2E/DX2                !
 ! A49   A(22,25,27)           120.4457         estimate D2E/DX2                !
 ! A50   A(22,25,29)           122.1765         estimate D2E/DX2                !
 ! A51   A(27,25,29)           117.0313         estimate D2E/DX2                !
 ! A52   A(24,27,25)           116.1637         estimate D2E/DX2                !
 ! A53   A(24,27,30)           126.2911         estimate D2E/DX2                !
 ! A54   A(25,27,30)           117.345          estimate D2E/DX2                !
 ! A55   A(25,29,31)           121.8522         estimate D2E/DX2                !
 ! A56   A(25,29,32)           117.3728         estimate D2E/DX2                !
 ! A57   A(31,29,32)           120.5818         estimate D2E/DX2                !
 ! A58   A(27,30,33)           123.3322         estimate D2E/DX2                !
 ! A59   A(27,30,34)           111.4422         estimate D2E/DX2                !
 ! A60   A(33,30,34)           125.172          estimate D2E/DX2                !
 ! A61   A(29,31,33)           121.581          estimate D2E/DX2                !
 ! A62   A(29,31,35)           121.3772         estimate D2E/DX2                !
 ! A63   A(33,31,35)           117.032          estimate D2E/DX2                !
 ! A64   A(30,33,31)           118.5477         estimate D2E/DX2                !
 ! A65   A(30,33,36)           119.8117         estimate D2E/DX2                !
 ! A66   A(31,33,36)           121.5744         estimate D2E/DX2                !
 ! D1    D(4,1,3,2)              2.407          estimate D2E/DX2                !
 ! D2    D(4,1,3,14)          -178.716          estimate D2E/DX2                !
 ! D3    D(12,1,3,2)           179.4415         estimate D2E/DX2                !
 ! D4    D(12,1,3,14)           -1.6815         estimate D2E/DX2                !
 ! D5    D(3,1,4,5)             -2.0053         estimate D2E/DX2                !
 ! D6    D(3,1,4,15)          -179.1095         estimate D2E/DX2                !
 ! D7    D(12,1,4,5)          -179.0934         estimate D2E/DX2                !
 ! D8    D(12,1,4,15)            3.8023         estimate D2E/DX2                !
 ! D9    D(11,2,3,1)             1.5515         estimate D2E/DX2                !
 ! D10   D(11,2,3,14)         -177.2768         estimate D2E/DX2                !
 ! D11   D(13,2,3,1)           176.3663         estimate D2E/DX2                !
 ! D12   D(13,2,3,14)           -2.462          estimate D2E/DX2                !
 ! D13   D(3,2,11,5)            -5.79           estimate D2E/DX2                !
 ! D14   D(3,2,11,10)         -179.0535         estimate D2E/DX2                !
 ! D15   D(13,2,11,5)          179.2364         estimate D2E/DX2                !
 ! D16   D(13,2,11,10)           5.9729         estimate D2E/DX2                !
 ! D17   D(1,4,5,6)           -176.9411         estimate D2E/DX2                !
 ! D18   D(1,4,5,11)            -2.3041         estimate D2E/DX2                !
 ! D19   D(15,4,5,6)             0.5161         estimate D2E/DX2                !
 ! D20   D(15,4,5,11)          175.1531         estimate D2E/DX2                !
 ! D21   D(4,5,6,7)           -177.8253         estimate D2E/DX2                !
 ! D22   D(4,5,6,16)            -1.5462         estimate D2E/DX2                !
 ! D23   D(11,5,6,7)             7.482          estimate D2E/DX2                !
 ! D24   D(11,5,6,16)         -176.2388         estimate D2E/DX2                !
 ! D25   D(4,5,11,2)             5.9268         estimate D2E/DX2                !
 ! D26   D(4,5,11,10)          179.3135         estimate D2E/DX2                !
 ! D27   D(6,5,11,2)          -178.888          estimate D2E/DX2                !
 ! D28   D(6,5,11,10)           -5.5013         estimate D2E/DX2                !
 ! D29   D(5,6,7,8)           -178.0186         estimate D2E/DX2                !
 ! D30   D(5,6,7,9)            -11.2244         estimate D2E/DX2                !
 ! D31   D(16,6,7,8)             5.7977         estimate D2E/DX2                !
 ! D32   D(16,6,7,9)           172.592          estimate D2E/DX2                !
 ! D33   D(6,7,8,17)            -7.1385         estimate D2E/DX2                !
 ! D34   D(6,7,8,19)           177.7005         estimate D2E/DX2                !
 ! D35   D(9,7,8,17)          -174.2592         estimate D2E/DX2                !
 ! D36   D(9,7,8,19)            10.5799         estimate D2E/DX2                !
 ! D37   D(6,7,9,10)            11.7            estimate D2E/DX2                !
 ! D38   D(6,7,9,20)          -178.9793         estimate D2E/DX2                !
 ! D39   D(8,7,9,10)           179.4118         estimate D2E/DX2                !
 ! D40   D(8,7,9,20)           -11.2676         estimate D2E/DX2                !
 ! D41   D(7,8,19,21)          -11.4868         estimate D2E/DX2                !
 ! D42   D(7,8,19,22)          179.8695         estimate D2E/DX2                !
 ! D43   D(17,8,19,21)         173.6428         estimate D2E/DX2                !
 ! D44   D(17,8,19,22)           4.999          estimate D2E/DX2                !
 ! D45   D(7,9,10,11)          -10.6896         estimate D2E/DX2                !
 ! D46   D(7,9,10,18)          176.3705         estimate D2E/DX2                !
 ! D47   D(20,9,10,11)         179.5752         estimate D2E/DX2                !
 ! D48   D(20,9,10,18)           6.6353         estimate D2E/DX2                !
 ! D49   D(7,9,20,21)           11.4868         estimate D2E/DX2                !
 ! D50   D(7,9,20,23)         -173.6428         estimate D2E/DX2                !
 ! D51   D(10,9,20,21)        -179.8695         estimate D2E/DX2                !
 ! D52   D(10,9,20,23)          -4.999          estimate D2E/DX2                !
 ! D53   D(9,10,11,2)         -179.1608         estimate D2E/DX2                !
 ! D54   D(9,10,11,5)            7.8006         estimate D2E/DX2                !
 ! D55   D(18,10,11,2)          -6.1599         estimate D2E/DX2                !
 ! D56   D(18,10,11,5)        -179.1985         estimate D2E/DX2                !
 ! D57   D(8,19,21,20)          11.2676         estimate D2E/DX2                !
 ! D58   D(8,19,21,24)         178.9793         estimate D2E/DX2                !
 ! D59   D(22,19,21,20)       -179.4118         estimate D2E/DX2                !
 ! D60   D(22,19,21,24)        -11.7            estimate D2E/DX2                !
 ! D61   D(8,19,22,25)        -179.5752         estimate D2E/DX2                !
 ! D62   D(8,19,22,26)          -6.6353         estimate D2E/DX2                !
 ! D63   D(21,19,22,25)         10.6896         estimate D2E/DX2                !
 ! D64   D(21,19,22,26)       -176.3705         estimate D2E/DX2                !
 ! D65   D(9,20,21,19)         -10.5799         estimate D2E/DX2                !
 ! D66   D(9,20,21,24)        -177.7005         estimate D2E/DX2                !
 ! D67   D(23,20,21,19)        174.2592         estimate D2E/DX2                !
 ! D68   D(23,20,21,24)          7.1385         estimate D2E/DX2                !
 ! D69   D(19,21,24,27)         11.2244         estimate D2E/DX2                !
 ! D70   D(19,21,24,28)       -172.592          estimate D2E/DX2                !
 ! D71   D(20,21,24,27)        178.0186         estimate D2E/DX2                !
 ! D72   D(20,21,24,28)         -5.7977         estimate D2E/DX2                !
 ! D73   D(19,22,25,27)         -7.8006         estimate D2E/DX2                !
 ! D74   D(19,22,25,29)        179.1608         estimate D2E/DX2                !
 ! D75   D(26,22,25,27)        179.1985         estimate D2E/DX2                !
 ! D76   D(26,22,25,29)          6.1599         estimate D2E/DX2                !
 ! D77   D(21,24,27,25)         -7.482          estimate D2E/DX2                !
 ! D78   D(21,24,27,30)        177.8253         estimate D2E/DX2                !
 ! D79   D(28,24,27,25)        176.2388         estimate D2E/DX2                !
 ! D80   D(28,24,27,30)          1.5462         estimate D2E/DX2                !
 ! D81   D(22,25,27,24)          5.5013         estimate D2E/DX2                !
 ! D82   D(22,25,27,30)       -179.3135         estimate D2E/DX2                !
 ! D83   D(29,25,27,24)        178.888          estimate D2E/DX2                !
 ! D84   D(29,25,27,30)         -5.9268         estimate D2E/DX2                !
 ! D85   D(22,25,29,31)        179.0535         estimate D2E/DX2                !
 ! D86   D(22,25,29,32)         -5.9729         estimate D2E/DX2                !
 ! D87   D(27,25,29,31)          5.79           estimate D2E/DX2                !
 ! D88   D(27,25,29,32)       -179.2364         estimate D2E/DX2                !
 ! D89   D(24,27,30,33)        176.9411         estimate D2E/DX2                !
 ! D90   D(24,27,30,34)         -0.5161         estimate D2E/DX2                !
 ! D91   D(25,27,30,33)          2.3041         estimate D2E/DX2                !
 ! D92   D(25,27,30,34)       -175.1531         estimate D2E/DX2                !
 ! D93   D(25,29,31,33)         -1.5515         estimate D2E/DX2                !
 ! D94   D(25,29,31,35)        177.2768         estimate D2E/DX2                !
 ! D95   D(32,29,31,33)       -176.3663         estimate D2E/DX2                !
 ! D96   D(32,29,31,35)          2.462          estimate D2E/DX2                !
 ! D97   D(27,30,33,31)          2.0053         estimate D2E/DX2                !
 ! D98   D(27,30,33,36)        179.0934         estimate D2E/DX2                !
 ! D99   D(34,30,33,31)        179.1095         estimate D2E/DX2                !
 ! D100  D(34,30,33,36)         -3.8023         estimate D2E/DX2                !
 ! D101  D(29,31,33,30)         -2.407          estimate D2E/DX2                !
 ! D102  D(29,31,33,36)       -179.4415         estimate D2E/DX2                !
 ! D103  D(35,31,33,30)        178.716          estimate D2E/DX2                !
 ! D104  D(35,31,33,36)          1.6815         estimate D2E/DX2                !
 --------------------------------------------------------------------------------
 Trust Radius=3.00D-01 FncErr=1.00D-07 GrdErr=1.00D-06 EigMax=2.50D+02 EigMin=1.00D-04
 Number of steps in this run=    216 maximum allowed number of steps=    216.
 GradGradGradGradGradGradGradGradGradGradGradGradGradGradGradGradGradGrad

 Leave Link  103 at Sat Apr  4 20:58:30 2026, MaxMem=  2415919104 cpu:               0.4 elap:               0.1
 (Enter /opt/software/gaussian/g16_avx/g16/l202.exe)
                          Input orientation:                          
 ---------------------------------------------------------------------
 Center     Atomic      Atomic             Coordinates (Angstroms)
 Number     Number       Type             X           Y           Z
 ---------------------------------------------------------------------
      1          6           0       -1.324200   -1.053100    5.903600
      2          6           0       -1.951100   -2.388300    4.040100
      3          6           0       -1.950000   -2.147200    5.374300
      4          6           0       -0.738900   -0.175300    5.062500
      5          6           0       -0.702600   -0.351800    3.637000
      6          6           0       -0.085600    0.455800    2.746600
      7          6           0       -0.090400    0.303200    1.377600
      8          6           0        0.617600    1.170400    0.485800
      9          6           0       -0.582600   -0.903600    0.822200
     10          6           0       -1.283500   -1.755300    1.776400
     11          6           0       -1.271000   -1.530500    3.116400
     12          1           0       -1.331100   -0.851900    6.989800
     13          1           0       -2.405300   -3.298100    3.639900
     14          1           0       -2.444100   -2.844400    6.090700
     15          1           0       -0.202600    0.719200    5.365600
     16          1           0        0.397000    1.316900    3.161300
     17          1           0        1.065200    2.013500    0.884600
     18          1           0       -1.742100   -2.667400    1.421200
     19          6           0        0.582600    0.903600   -0.822200
     20          6           0       -0.617600   -1.170400   -0.485800
     21          6           0        0.090400   -0.303200   -1.377600
     22          6           0        1.283500    1.755300   -1.776400
     23          1           0       -1.065200   -2.013500   -0.884600
     24          6           0        0.085600   -0.455800   -2.746600
     25          6           0        1.271000    1.530500   -3.116400
     26          1           0        1.742100    2.667400   -1.421200
     27          6           0        0.702600    0.351800   -3.637000
     28          1           0       -0.397000   -1.316900   -3.161300
     29          6           0        1.951100    2.388300   -4.040100
     30          6           0        0.738900    0.175300   -5.062500
     31          6           0        1.950000    2.147200   -5.374300
     32          1           0        2.405300    3.298100   -3.639900
     33          6           0        1.324200    1.053100   -5.903600
     34          1           0        0.202600   -0.719200   -5.365600
     35          1           0        2.444100    2.844400   -6.090700
     36          1           0        1.331100    0.851900   -6.989800
 ---------------------------------------------------------------------
                    Distance matrix (angstroms):
                    1          2          3          4          5
     1  C    0.000000
     2  C    2.376635   0.000000
     3  C    1.367055   1.355810   0.000000
     4  C    1.349281   2.722517   2.335031   0.000000
     5  C    2.452689   2.422514   2.792432   1.436844   0.000000
     6  C    3.711813   3.638975   4.142029   2.487666   1.351192
     7  C    4.883287   4.218446   5.043430   3.772002   2.430782
     8  C    6.169854   5.647620   6.441776   4.959555   3.740332
     9  C    5.137407   3.798948   4.913038   4.305229   2.870885
    10  C    4.186708   2.443505   3.680040   3.686657   2.401893
    11  C    2.828290   1.432333   2.437103   2.430433   1.408345
    12  H    1.104699   3.383143   2.161176   2.126728   3.447663
    13  H    3.366473   1.092792   2.130730   3.814782   3.402922
    14  H    2.120834   2.157785   1.115102   3.330015   3.907240
    15  H    2.165289   3.804045   3.357042   1.086102   2.094063
    16  H    4.012436   4.473742   4.733473   2.670485   2.054257
    17  H    6.348514   6.199281   6.823508   5.049799   4.036764
    18  H    4.782522   2.642010   3.992597   4.525046   3.369322
    19  C    7.259542   6.395170   7.356498   6.126996   4.807518
    20  C    6.429423   4.872912   6.088530   5.638135   4.204142
    21  C    7.455154   6.153604   7.290523   6.494535   5.077147
    22  C    8.583100   7.839881   8.764562   7.388361   6.139166
    23  H    6.860693   5.017765   6.322545   6.233254   4.830900
    24  C    8.784661   7.344522   8.541283   7.857514   6.432917
    25  C    9.735012   8.772367   9.797566   8.593245   7.283307
    26  H    8.769094   8.308166   9.109928   7.501644   6.377893
    27  C    9.854172   8.572522   9.720330   8.833859   7.441822
    28  H    9.116014   7.444682   8.715370   8.309695   6.873259
    29  C   11.020345  10.165270  11.154383   9.831860   8.572522
    30  C   11.225894   9.831860  11.025016  10.238283   8.833859
    31  C   12.171825  11.154383  12.214101  11.025016   9.720330
    32  H   11.131959  10.502179  11.396303   9.883434   8.714017
    33  C   12.282511  11.020345  12.171825  11.225894   9.854172
    34  H   11.377059   9.792421  11.046190  10.484633   9.055450
    35  H   13.162592  12.220149  13.254071  11.985155  10.711936
    36  H   13.301105  11.955351  13.138919  12.271837  10.886400
                    6          7          8          9         10
     6  C    0.000000
     7  C    1.377487   0.000000
     8  C    2.473128   1.431296   0.000000
     9  C    2.407964   1.416720   2.419736   0.000000
    10  C    2.695406   2.412458   3.720155   1.458476   0.000000
    11  C    2.342501   2.789211   4.216839   2.475935   1.358783
    12  H    4.611518   5.862626   7.084430   6.213068   5.291308
    13  H    4.502306   4.842120   6.249301   4.122535   2.666702
    14  H    5.257076   6.136823   7.543708   5.915148   4.598512
    15  H    2.634811   4.011208   4.968778   4.839459   4.491531
    16  H    1.070688   2.108728   2.688573   3.370701   3.765693
    17  H    2.686599   2.122166   1.034507   3.350912   4.529410
    18  H    3.775587   3.399188   4.601290   2.194136   1.080929
    19  C    3.658326   2.377505   1.335392   2.706975   4.159904
    20  C    3.657316   2.433454   2.819410   1.335392   2.429625
    21  C    4.197152   2.826931   2.433454   2.377505   3.734155
    22  C    4.901088   3.734155   2.429625   4.159904   5.615709
    23  H    4.499186   3.381550   3.853185   2.092354   2.682395
    24  C    5.570958   4.197152   3.657316   3.658326   4.901088
    25  C    6.113110   4.853423   3.678648   4.987308   6.423507
    26  H    5.059864   4.096435   2.672482   4.815508   6.240126
    27  C    6.432917   5.077147   4.204142   4.807518   6.139166
    28  H    6.175979   4.829114   4.529615   4.009182   5.035768
    29  C    7.344522   6.153604   4.872912   6.395170   7.839881
    30  C    7.857514   6.494535   5.638135   6.126996   7.388361
    31  C    8.541283   7.290523   6.088530   7.356498   8.764562
    32  H    7.420959   6.353995   4.974372   6.818516   8.275289
    33  C    8.784661   7.455154   6.429423   7.259542   8.583100
    34  H    8.201919   6.826558   6.162929   6.240145   7.368186
    35  H    9.497508   8.285945   7.027712   8.425948   9.845989
    36  H    9.846899   8.505005   7.516324   8.232337   9.512092
                   11         12         13         14         15
    11  C    0.000000
    12  H    3.932854   0.000000
    13  H    2.164509   4.284814   0.000000
    14  H    3.456726   2.452999   2.492743   0.000000
    15  H    3.355820   2.525845   4.895776   4.271924   0.000000
    16  H    3.300292   4.727307   5.420348   5.828349   2.361293
    17  H    4.795696   7.157251   6.917307   7.938379   4.833414
    18  H    2.094798   5.871479   2.400051   4.725290   5.421938
    19  C    4.987308   8.232337   6.818516   8.425948   6.240145
    20  C    3.678648   7.516324   4.974372   7.027712   6.162929
    21  C    4.853423   8.505005   6.353995   8.285945   6.826558
    22  C    6.423507   9.512092   8.275289   9.845989   7.368186
    23  H    4.035300   7.964056   4.890518   7.158671   6.875807
    24  C    6.113110   9.846899   7.420959   9.497508   8.201919
    25  C    7.394544  10.704300   9.081748  10.849535   8.647198
    26  H    6.876842   9.621588   8.854538  10.214345   7.323797
    27  C    7.283307  10.886400   8.714017  10.711936   9.055450
    28  H    6.341847  10.204587   7.363066   9.598092   8.768781
    29  C    8.772367  11.955351  10.502179  12.220149   9.792421
    30  C    8.593245  12.271837   9.883434  11.985155  10.484633
    31  C    9.797566  13.138919  11.396303  13.254071  11.046190
    32  H    9.081748  12.007236  10.938337  12.487256   9.723729
    33  C    9.735012  13.301105  11.131959  13.162592  11.377059
    34  H    8.647198  12.450934   9.723729  11.948569  10.834751
    35  H   10.849535  14.107241  12.487256  14.305364  11.948569
    36  H   10.704300  14.332462  12.007236  14.107241  12.450934
                   16         17         18         19         20
    16  H    0.000000
    17  H    2.472874   0.000000
    18  H    4.845446   5.484496   0.000000
    19  C    4.009182   2.092354   4.815508   0.000000
    20  C    4.529615   3.853185   2.672482   2.419736   0.000000
    21  C    4.829114   3.381550   4.096435   1.416720   1.431296
    22  C    5.035768   2.682395   6.240126   1.458476   3.720155
    23  H    5.440487   4.887269   2.490480   3.350912   1.034507
    24  C    6.175979   4.499186   5.059864   2.407964   2.473128
    25  C    6.341847   4.035300   6.876842   2.475935   4.216839
    26  H    4.963109   2.490480   6.977032   2.194136   4.601290
    27  C    6.873259   4.830900   6.377893   2.870885   3.740332
    28  H    6.895115   5.440487   4.963109   3.370701   2.688573
    29  C    7.444682   5.017765   8.308166   3.798948   5.647620
    30  C    8.309695   6.233254   7.501644   4.305229   4.959555
    31  C    8.715370   6.322545   9.109928   4.913038   6.441776
    32  H    7.363066   4.890518   8.854538   4.122535   6.249301
    33  C    9.116014   6.860693   8.769094   5.137407   6.169854
    34  H    8.768781   6.875807   7.323797   4.839459   4.968778
    35  H    9.598092   7.158671  10.214345   5.915148   7.543708
    36  H   10.204587   7.964056   9.621588   6.213068   7.084430
                   21         22         23         24         25
    21  C    0.000000
    22  C    2.412458   0.000000
    23  H    2.122166   4.529410   0.000000
    24  C    1.377487   2.695406   2.686599   0.000000
    25  C    2.789211   1.358783   4.795696   2.342501   0.000000
    26  H    3.399188   1.080929   5.484496   3.775587   2.094798
    27  C    2.430782   2.401893   4.036764   1.351192   1.408345
    28  H    2.108728   3.765693   2.472874   1.070688   3.300292
    29  C    4.218446   2.443505   6.199281   3.638975   1.432333
    30  C    3.772002   3.686657   5.049799   2.487666   2.430433
    31  C    5.043430   3.680040   6.823508   4.142029   2.437103
    32  H    4.842120   2.666702   6.917307   4.502306   2.164509
    33  C    4.883287   4.186708   6.348514   3.711813   2.828290
    34  H    4.011208   4.491531   4.833414   2.634811   3.355820
    35  H    6.136823   4.598512   7.938379   5.257076   3.456726
    36  H    5.862626   5.291308   7.157251   4.611518   3.932854
                   26         27         28         29         30
    26  H    0.000000
    27  C    3.369322   0.000000
    28  H    4.845446   2.054257   0.000000
    29  C    2.642010   2.422514   4.473742   0.000000
    30  C    4.525046   1.436844   2.670485   2.722517   0.000000
    31  C    3.992597   2.792432   4.733473   1.355810   2.335031
    32  H    2.400051   3.402922   5.420348   1.092792   3.814782
    33  C    4.782522   2.452689   4.012436   2.376635   1.349281
    34  H    5.421938   2.094063   2.361293   3.804045   1.086102
    35  H    4.725290   3.907240   5.828349   2.157785   3.330015
    36  H    5.871479   3.447663   4.727307   3.383143   2.126728
                   31         32         33         34         35
    31  C    0.000000
    32  H    2.130730   0.000000
    33  C    1.367055   3.366473   0.000000
    34  H    3.357042   4.895776   2.165289   0.000000
    35  H    1.115102   2.492743   2.120834   4.271924   0.000000
    36  H    2.161176   4.284814   1.104699   2.525845   2.452999
                   36
    36  H    0.000000
 Stoichiometry    C22H14
 Framework group  CI[X(C22H14)]
 Deg. of freedom    51
 Full point group                 CI      NOp   2
 Largest Abelian subgroup         CI      NOp   2
 Largest concise Abelian subgroup CI      NOp   2
                         Standard orientation:                         
 ---------------------------------------------------------------------
 Center     Atomic      Atomic             Coordinates (Angstroms)
 Number     Number       Type             X           Y           Z
 ---------------------------------------------------------------------
      1          6           0       -1.324200   -1.053100    5.903600
      2          6           0       -1.951100   -2.388300    4.040100
      3          6           0       -1.950000   -2.147200    5.374300
      4          6           0       -0.738900   -0.175300    5.062500
      5          6           0       -0.702600   -0.351800    3.637000
      6          6           0       -0.085600    0.455800    2.746600
      7          6           0       -0.090400    0.303200    1.377600
      8          6           0        0.617600    1.170400    0.485800
      9          6           0       -0.582600   -0.903600    0.822200
     10          6           0       -1.283500   -1.755300    1.776400
     11          6           0       -1.271000   -1.530500    3.116400
     12          1           0       -1.331100   -0.851900    6.989800
     13          1           0       -2.405300   -3.298100    3.639900
     14          1           0       -2.444100   -2.844400    6.090700
     15          1           0       -0.202600    0.719200    5.365600
     16          1           0        0.397000    1.316900    3.161300
     17          1           0        1.065200    2.013500    0.884600
     18          1           0       -1.742100   -2.667400    1.421200
     19          6           0        0.582600    0.903600   -0.822200
     20          6           0       -0.617600   -1.170400   -0.485800
     21          6           0        0.090400   -0.303200   -1.377600
     22          6           0        1.283500    1.755300   -1.776400
     23          1           0       -1.065200   -2.013500   -0.884600
     24          6           0        0.085600   -0.455800   -2.746600
     25          6           0        1.271000    1.530500   -3.116400
     26          1           0        1.742100    2.667400   -1.421200
     27          6           0        0.702600    0.351800   -3.637000
     28          1           0       -0.397000   -1.316900   -3.161300
     29          6           0        1.951100    2.388300   -4.040100
     30          6           0        0.738900    0.175300   -5.062500
     31          6           0        1.950000    2.147200   -5.374300
     32          1           0        2.405300    3.298100   -3.639900
     33          6           0        1.324200    1.053100   -5.903600
     34          1           0        0.202600   -0.719200   -5.365600
     35          1           0        2.444100    2.844400   -6.090700
     36          1           0        1.331100    0.851900   -6.989800
 ---------------------------------------------------------------------
 Rotational constants (GHZ):           1.4037381           0.1188709           0.1096056
 Leave Link  202 at Sat Apr  4 20:58:30 2026, MaxMem=  2415919104 cpu:               0.5 elap:               0.1
 (Enter /opt/software/gaussian/g16_avx/g16/l301.exe)
 Standard basis: 3-21G* (6D, 7F)
 Ernie: Thresh=  0.10000D-02 Tol=  0.10000D-05 Strict=F.
 There are   113 symmetry adapted cartesian basis functions of AG  symmetry.
 There are   113 symmetry adapted cartesian basis functions of AU  symmetry.
 There are   113 symmetry adapted basis functions of AG  symmetry.
 There are   113 symmetry adapted basis functions of AU  symmetry.
   226 basis functions,   372 primitive gaussians,   226 cartesian basis functions
    73 alpha electrons       73 beta electrons
       nuclear repulsion energy      1511.8430080771 Hartrees.
 IExCor=  402 DFT=T Ex+Corr=B3LYP ExCW=0 ScaHFX=  0.200000
 ScaDFX=  0.800000  0.720000  1.000000  0.810000 ScalE2=  1.000000  1.000000
 IRadAn=      5 IRanWt=     -1 IRanGd=            0 ICorTp=0 IEmpDi=  4
 NAtoms=   36 NActive=   36 NUniq=   18 SFac= 4.00D+00 NAtFMM=   60 NAOKFM=F Big=F
 Integral buffers will be    131072 words long.
 Raffenetti 2 integral format.
 Two-electron integral symmetry is turned on.
 Leave Link  301 at Sat Apr  4 20:58:30 2026, MaxMem=  2415919104 cpu:               0.9 elap:               0.1
 (Enter /opt/software/gaussian/g16_avx/g16/l302.exe)
 NPDir=0 NMtPBC=     1 NCelOv=     1 NCel=       1 NClECP=     1 NCelD=      1
         NCelK=      1 NCelE2=     1 NClLst=     1 CellRange=     0.0.
 One-electron integrals computed using PRISM.
 One-electron integral symmetry used in STVInt
 NBasis=   226 RedAO= T EigKep=  9.34D-04  NBF=   113   113
 NBsUse=   226 1.00D-06 EigRej= -1.00D+00 NBFU=   113   113
 Precomputing XC quadrature grid using
 IXCGrd= 4 IRadAn=           5 IRanWt=          -1 IRanGd=           0 AccXCQ= 0.00D+00.
 Generated NRdTot=       0 NPtTot=           0 NUsed=           0 NTot=          32
 NSgBfM=   217   217   217   217   217 MxSgAt=    36 MxSgA2=    36.
 Leave Link  302 at Sat Apr  4 20:58:30 2026, MaxMem=  2415919104 cpu:               4.6 elap:               0.3
 (Enter /opt/software/gaussian/g16_avx/g16/l303.exe)
 DipDrv:  MaxL=1.
 Leave Link  303 at Sat Apr  4 20:58:30 2026, MaxMem=  2415919104 cpu:               0.8 elap:               0.1
 (Enter /opt/software/gaussian/g16_avx/g16/l401.exe)
 ExpMin= 1.83D-01 ExpMax= 1.72D+02 ExpMxC= 1.72D+02 IAcc=3 IRadAn=         5 AccDes= 0.00D+00
 Harris functional with IExCor=  402 and IRadAn=       5 diagonalized for initial guess.
 HarFok:  IExCor=  402 AccDes= 0.00D+00 IRadAn=         5 IDoV= 1 UseB2=F ITyADJ=14
 ICtDFT=  3500011 ScaDFX=  1.000000  1.000000  1.000000  1.000000
 FoFCou: FMM=F IPFlag=           0 FMFlag=      100000 FMFlg1=           0
         NFxFlg=           0 DoJE=T BraDBF=F KetDBF=T FulRan=T
         wScrn=  0.000000 ICntrl=       500 IOpCl=  0 I1Cent=   200000004 NGrid=           0
         NMat0=    1 NMatS0=      1 NMatT0=    0 NMatD0=    1 NMtDS0=    0 NMtDT0=    0
 Petite list used in FoFCou.
 Harris En= -841.965286376801    
 JPrj=0 DoOrth=F DoCkMO=F.
 Initial guess orbital symmetries:
       Occupied  (AG) (AU) (AU) (AG) (AG) (AU) (AG) (AU) (AG) (AU)
                 (AG) (AU) (AU) (AG) (AG) (AU) (AU) (AG) (AU) (AG)
                 (AU) (AG) (AG) (AU) (AG) (AU) (AG) (AU) (AG) (AU)
                 (AU) (AG) (AU) (AG) (AG) (AU) (AG) (AG) (AU) (AU)
                 (AG) (AU) (AG) (AG) (AU) (AU) (AU) (AG) (AU) (AG)
                 (AU) (AU) (AG) (AG) (AU) (AG) (AU) (AU) (AG) (AU)
                 (AG) (AU) (AG) (AU) (AG) (AG) (AG) (AU) (AU) (AG)
                 (AG) (AU) (AG)
       Virtual   (AU) (AG) (AU) (AU) (AG) (AG) (AU) (AU) (AG) (AG)
                 (AU) (AU) (AG) (AG) (AU) (AU) (AG) (AU) (AG) (AU)
                 (AG) (AU) (AG) (AG) (AG) (AG) (AU) (AU) (AU) (AU)
                 (AG) (AU) (AG) (AU) (AG) (AG) (AU) (AU) (AG) (AU)
                 (AU) (AG) (AG) (AU) (AG) (AG) (AU) (AG) (AU) (AG)
                 (AU) (AG) (AU) (AU) (AU) (AG) (AU) (AG) (AG) (AU)
                 (AG) (AG) (AG) (AU) (AU) (AG) (AU) (AU) (AG) (AU)
                 (AG) (AG) (AU) (AG) (AU) (AG) (AU) (AU) (AG) (AU)
                 (AG) (AU) (AG) (AU) (AG) (AG) (AU) (AG) (AU) (AG)
                 (AU) (AU) (AG) (AG) (AU) (AG) (AU) (AG) (AU) (AG)
                 (AU) (AG) (AU) (AG) (AG) (AU) (AU) (AG) (AG) (AG)
                 (AU) (AU) (AG) (AU) (AG) (AU) (AU) (AG) (AU) (AG)
                 (AU) (AG) (AU) (AU) (AG) (AU) (AG) (AU) (AG) (AU)
                 (AG) (AU) (AG) (AU) (AG) (AU) (AU) (AG) (AG) (AU)
                 (AU) (AG) (AG) (AG) (AU) (AU) (AG) (AG) (AU) (AG)
                 (AU) (AG) (AU)
 The electronic state of the initial guess is 1-AG.
 Leave Link  401 at Sat Apr  4 20:58:31 2026, MaxMem=  2415919104 cpu:               9.2 elap:               0.6
 (Enter /opt/software/gaussian/g16_avx/g16/l502.exe)
 Integral symmetry usage will be decided dynamically.
 Closed shell SCF:
 Using DIIS extrapolation, IDIIS=  1040.
 NGot=  2415919104 LenX=  2415809072 LenY=  2415757555
 Requested convergence on RMS density matrix=1.00D-08 within 128 cycles.
 Requested convergence on MAX density matrix=1.00D-06.
 Requested convergence on             energy=1.00D-06.
 No special actions if energy rises.
 Fock matrices will be formed incrementally for  20 cycles.
 Integral accuracy reduced to 1.0D-05 until final iterations.

 Cycle   1  Pass 0  IDiag  1:
 FoFJK:  IHMeth= 1 ICntrl=       0 DoSepK=F KAlg= 0 I1Cent=           0 FoldK=F
 IRaf= 670000000 NMat=       1 IRICut=       1 DoRegI=T DoRafI=F ISym2E= 1 IDoP0=0 IntGTp=1.
 FoFCou: FMM=F IPFlag=           0 FMFlag=      100000 FMFlg1=           0
         NFxFlg=           0 DoJE=F BraDBF=F KetDBF=F FulRan=T
         wScrn=  0.000000 ICntrl=         0 IOpCl=  0 I1Cent=           0 NGrid=           0
         NMat0=    1 NMatS0=      1 NMatT0=    0 NMatD0=    1 NMtDS0=    0 NMtDT0=    0
 Petite list used in FoFCou.
 E= -841.757906329795    
 DIIS: error= 4.50D-02 at cycle   1 NSaved=   1.
 NSaved= 1 IEnMin= 1 EnMin= -841.757906329795     IErMin= 1 ErrMin= 4.50D-02
 ErrMax= 4.50D-02  0.00D+00 EMaxC= 1.00D-01 BMatC= 2.89D-01 BMatP= 2.89D-01
 IDIUse=3 WtCom= 5.50D-01 WtEn= 4.50D-01
 Coeff-Com:  0.100D+01
 Coeff-En:   0.100D+01
 Coeff:      0.100D+01
 Gap=     0.081 Goal=   None    Shift=    0.000
 GapD=    0.081 DampG=0.500 DampE=0.500 DampFc=0.2500 IDamp=-1.
 Damping current iteration by 2.50D-01
 RMSDP=5.04D-03 MaxDP=9.06D-02              OVMax= 1.19D-01

 Cycle   2  Pass 0  IDiag  1:
 RMSU=  1.23D-03    CP:  9.91D-01
 E= -841.866169725917     Delta-E=       -0.108263396122 Rises=F Damp=T
 DIIS: error= 2.67D-02 at cycle   2 NSaved=   2.
 NSaved= 2 IEnMin= 2 EnMin= -841.866169725917     IErMin= 2 ErrMin= 2.67D-02
 ErrMax= 2.67D-02  0.00D+00 EMaxC= 1.00D-01 BMatC= 9.75D-02 BMatP= 2.89D-01
 IDIUse=3 WtCom= 7.33D-01 WtEn= 2.67D-01
 Coeff-Com: -0.126D+01 0.226D+01
 Coeff-En:   0.000D+00 0.100D+01
 Coeff:     -0.921D+00 0.192D+01
 Gap=     0.082 Goal=   None    Shift=    0.000
 RMSDP=2.07D-03 MaxDP=3.19D-02 DE=-1.08D-01 OVMax= 6.50D-02

 Cycle   3  Pass 0  IDiag  1:
 RMSU=  1.25D-03    CP:  9.77D-01  2.30D+00
 E= -842.066454097391     Delta-E=       -0.200284371474 Rises=F Damp=F
 DIIS: error= 5.72D-03 at cycle   3 NSaved=   3.
 NSaved= 3 IEnMin= 3 EnMin= -842.066454097391     IErMin= 3 ErrMin= 5.72D-03
 ErrMax= 5.72D-03  0.00D+00 EMaxC= 1.00D-01 BMatC= 4.92D-03 BMatP= 9.75D-02
 IDIUse=3 WtCom= 9.43D-01 WtEn= 5.72D-02
 Coeff-Com: -0.291D+00 0.602D+00 0.688D+00
 Coeff-En:   0.000D+00 0.000D+00 0.100D+01
 Coeff:     -0.274D+00 0.568D+00 0.706D+00
 Gap=     0.083 Goal=   None    Shift=    0.000
 RMSDP=7.70D-04 MaxDP=1.30D-02 DE=-2.00D-01 OVMax= 4.57D-02

 Cycle   4  Pass 0  IDiag  1:
 RMSU=  6.64D-04    CP:  9.77D-01  2.18D+00  7.10D-01
 E= -842.067492249298     Delta-E=       -0.001038151907 Rises=F Damp=F
 DIIS: error= 6.09D-03 at cycle   4 NSaved=   4.
 NSaved= 4 IEnMin= 4 EnMin= -842.067492249298     IErMin= 3 ErrMin= 5.72D-03
 ErrMax= 6.09D-03  0.00D+00 EMaxC= 1.00D-01 BMatC= 3.68D-03 BMatP= 4.92D-03
 IDIUse=3 WtCom= 9.39D-01 WtEn= 6.09D-02
 Coeff-Com:  0.403D-01-0.130D-01 0.493D+00 0.480D+00
 Coeff-En:   0.000D+00 0.000D+00 0.457D+00 0.543D+00
 Coeff:      0.379D-01-0.122D-01 0.491D+00 0.484D+00
 Gap=     0.082 Goal=   None    Shift=    0.000
 RMSDP=4.27D-04 MaxDP=8.55D-03 DE=-1.04D-03 OVMax= 2.69D-02

 Cycle   5  Pass 0  IDiag  1:
 RMSU=  1.49D-04    CP:  9.77D-01  2.19D+00  8.18D-01  4.33D-01
 E= -842.072137223493     Delta-E=       -0.004644974195 Rises=F Damp=F
 DIIS: error= 6.25D-04 at cycle   5 NSaved=   5.
 NSaved= 5 IEnMin= 5 EnMin= -842.072137223493     IErMin= 5 ErrMin= 6.25D-04
 ErrMax= 6.25D-04  0.00D+00 EMaxC= 1.00D-01 BMatC= 4.40D-05 BMatP= 3.68D-03
 IDIUse=3 WtCom= 9.94D-01 WtEn= 6.25D-03
 Coeff-Com:  0.235D-01-0.236D-01 0.154D+00 0.191D+00 0.655D+00
 Coeff-En:   0.000D+00 0.000D+00 0.000D+00 0.000D+00 0.100D+01
 Coeff:      0.234D-01-0.235D-01 0.153D+00 0.190D+00 0.657D+00
 Gap=     0.082 Goal=   None    Shift=    0.000
 RMSDP=7.05D-05 MaxDP=1.38D-03 DE=-4.64D-03 OVMax= 5.48D-03

 Cycle   6  Pass 0  IDiag  1:
 RMSU=  5.42D-05    CP:  9.77D-01  2.19D+00  8.21D-01  4.73D-01  7.58D-01
 E= -842.072161195742     Delta-E=       -0.000023972249 Rises=F Damp=F
 DIIS: error= 4.58D-04 at cycle   6 NSaved=   6.
 NSaved= 6 IEnMin= 6 EnMin= -842.072161195742     IErMin= 6 ErrMin= 4.58D-04
 ErrMax= 4.58D-04  0.00D+00 EMaxC= 1.00D-01 BMatC= 2.43D-05 BMatP= 4.40D-05
 IDIUse=3 WtCom= 9.95D-01 WtEn= 4.58D-03
 Coeff-Com:  0.107D-01-0.146D-01 0.360D-01 0.643D-01 0.459D+00 0.444D+00
 Coeff-En:   0.000D+00 0.000D+00 0.000D+00 0.000D+00 0.374D+00 0.626D+00
 Coeff:      0.107D-01-0.145D-01 0.358D-01 0.640D-01 0.459D+00 0.445D+00
 Gap=     0.082 Goal=   None    Shift=    0.000
 RMSDP=3.37D-05 MaxDP=5.63D-04 DE=-2.40D-05 OVMax= 2.59D-03

 Cycle   7  Pass 0  IDiag  1:
 RMSU=  8.26D-06    CP:  9.77D-01  2.19D+00  8.24D-01  4.78D-01  8.02D-01
                    CP:  4.18D-01
 E= -842.072190529320     Delta-E=       -0.000029333578 Rises=F Damp=F
 DIIS: error= 5.00D-05 at cycle   7 NSaved=   7.
 NSaved= 7 IEnMin= 7 EnMin= -842.072190529320     IErMin= 7 ErrMin= 5.00D-05
 ErrMax= 5.00D-05  0.00D+00 EMaxC= 1.00D-01 BMatC= 6.17D-07 BMatP= 2.43D-05
 IDIUse=1 WtCom= 1.00D+00 WtEn= 0.00D+00
 Coeff-Com:  0.587D-02-0.818D-02 0.173D-01 0.325D-01 0.249D+00 0.260D+00
 Coeff-Com:  0.443D+00
 Coeff:      0.587D-02-0.818D-02 0.173D-01 0.325D-01 0.249D+00 0.260D+00
 Coeff:      0.443D+00
 Gap=     0.082 Goal=   None    Shift=    0.000
 RMSDP=4.79D-06 MaxDP=1.48D-04 DE=-2.93D-05 OVMax= 3.48D-04

 Initial convergence to 1.0D-05 achieved.  Increase integral accuracy.
 Cycle   8  Pass 1  IDiag  1:
 E= -842.072142775795     Delta-E=        0.000047753525 Rises=F Damp=F
 DIIS: error= 7.51D-05 at cycle   1 NSaved=   1.
 NSaved= 1 IEnMin= 1 EnMin= -842.072142775795     IErMin= 1 ErrMin= 7.51D-05
 ErrMax= 7.51D-05  0.00D+00 EMaxC= 1.00D-01 BMatC= 2.57D-07 BMatP= 2.57D-07
 IDIUse=1 WtCom= 1.00D+00 WtEn= 0.00D+00
 Coeff-Com:  0.100D+01
 Coeff:      0.100D+01
 Gap=     0.082 Goal=   None    Shift=    0.000
 RMSDP=4.79D-06 MaxDP=1.48D-04 DE= 4.78D-05 OVMax= 1.37D-04

 Cycle   9  Pass 1  IDiag  1:
 RMSU=  3.27D-05    CP:  1.00D+00
 E= -842.072143001153     Delta-E=       -0.000000225359 Rises=F Damp=F
 DIIS: error= 1.51D-05 at cycle   2 NSaved=   2.
 NSaved= 2 IEnMin= 2 EnMin= -842.072143001153     IErMin= 2 ErrMin= 1.51D-05
 ErrMax= 1.51D-05  0.00D+00 EMaxC= 1.00D-01 BMatC= 5.19D-08 BMatP= 2.57D-07
 IDIUse=1 WtCom= 1.00D+00 WtEn= 0.00D+00
 Coeff-Com:  0.215D+00 0.785D+00
 Coeff:      0.215D+00 0.785D+00
 Gap=     0.082 Goal=   None    Shift=    0.000
 RMSDP=3.16D-06 MaxDP=9.07D-05 DE=-2.25D-07 OVMax= 2.07D-04

 Cycle  10  Pass 1  IDiag  1:
 RMSU=  3.13D-06    CP:  1.00D+00  1.01D+00
 E= -842.072142960724     Delta-E=        0.000000040430 Rises=F Damp=F
 DIIS: error= 2.19D-05 at cycle   3 NSaved=   3.
 NSaved= 3 IEnMin= 2 EnMin= -842.072143001153     IErMin= 2 ErrMin= 1.51D-05
 ErrMax= 2.19D-05  0.00D+00 EMaxC= 1.00D-01 BMatC= 8.59D-08 BMatP= 5.19D-08
 IDIUse=1 WtCom= 1.00D+00 WtEn= 0.00D+00
 Coeff-Com: -0.490D-02 0.565D+00 0.440D+00
 Coeff:     -0.490D-02 0.565D+00 0.440D+00
 Gap=     0.082 Goal=   None    Shift=    0.000
 RMSDP=1.85D-06 MaxDP=5.15D-05 DE= 4.04D-08 OVMax= 1.32D-04

 Cycle  11  Pass 1  IDiag  1:
 RMSU=  3.73D-07    CP:  1.00D+00  1.02D+00  4.22D-01
 E= -842.072143057964     Delta-E=       -0.000000097240 Rises=F Damp=F
 DIIS: error= 3.34D-06 at cycle   4 NSaved=   4.
 NSaved= 4 IEnMin= 4 EnMin= -842.072143057964     IErMin= 4 ErrMin= 3.34D-06
 ErrMax= 3.34D-06  0.00D+00 EMaxC= 1.00D-01 BMatC= 1.28D-09 BMatP= 5.19D-08
 IDIUse=1 WtCom= 1.00D+00 WtEn= 0.00D+00
 Coeff-Com: -0.555D-02 0.353D+00 0.283D+00 0.370D+00
 Coeff:     -0.555D-02 0.353D+00 0.283D+00 0.370D+00
 Gap=     0.082 Goal=   None    Shift=    0.000
 RMSDP=2.33D-07 MaxDP=4.42D-06 DE=-9.72D-08 OVMax= 1.88D-05

 Cycle  12  Pass 1  IDiag  1:
 RMSU=  1.03D-07    CP:  1.00D+00  1.02D+00  4.41D-01  4.63D-01
 E= -842.072143059450     Delta-E=       -0.000000001486 Rises=F Damp=F
 DIIS: error= 3.38D-07 at cycle   5 NSaved=   5.
 NSaved= 5 IEnMin= 5 EnMin= -842.072143059450     IErMin= 5 ErrMin= 3.38D-07
 ErrMax= 3.38D-07  0.00D+00 EMaxC= 1.00D-01 BMatC= 1.81D-11 BMatP= 1.28D-09
 IDIUse=1 WtCom= 1.00D+00 WtEn= 0.00D+00
 Coeff-Com: -0.235D-02 0.138D+00 0.112D+00 0.176D+00 0.577D+00
 Coeff:     -0.235D-02 0.138D+00 0.112D+00 0.176D+00 0.577D+00
 Gap=     0.082 Goal=   None    Shift=    0.000
 RMSDP=3.41D-08 MaxDP=8.46D-07 DE=-1.49D-09 OVMax= 2.07D-06

 Cycle  13  Pass 1  IDiag  1:
 RMSU=  2.89D-08    CP:  1.00D+00  1.02D+00  4.43D-01  4.98D-01  8.95D-01
 E= -842.072143059471     Delta-E=       -0.000000000021 Rises=F Damp=F
 DIIS: error= 1.19D-07 at cycle   6 NSaved=   6.
 NSaved= 6 IEnMin= 6 EnMin= -842.072143059471     IErMin= 6 ErrMin= 1.19D-07
 ErrMax= 1.19D-07  0.00D+00 EMaxC= 1.00D-01 BMatC= 3.78D-12 BMatP= 1.81D-11
 IDIUse=1 WtCom= 1.00D+00 WtEn= 0.00D+00
 Coeff-Com: -0.348D-03 0.147D-01 0.124D-01 0.377D-01 0.337D+00 0.599D+00
 Coeff:     -0.348D-03 0.147D-01 0.124D-01 0.377D-01 0.337D+00 0.599D+00
 Gap=     0.082 Goal=   None    Shift=    0.000
 RMSDP=1.49D-08 MaxDP=3.79D-07 DE=-2.09D-11 OVMax= 7.09D-07

 Cycle  14  Pass 1  IDiag  1:
 RMSU=  9.27D-09    CP:  1.00D+00  1.02D+00  4.43D-01  5.01D-01  9.34D-01
                    CP:  6.24D-01
 E= -842.072143059475     Delta-E=       -0.000000000004 Rises=F Damp=F
 DIIS: error= 4.10D-08 at cycle   7 NSaved=   7.
 NSaved= 7 IEnMin= 7 EnMin= -842.072143059475     IErMin= 7 ErrMin= 4.10D-08
 ErrMax= 4.10D-08  0.00D+00 EMaxC= 1.00D-01 BMatC= 2.01D-13 BMatP= 3.78D-12
 IDIUse=1 WtCom= 1.00D+00 WtEn= 0.00D+00
 Coeff-Com:  0.132D-04-0.330D-02-0.257D-02 0.556D-02 0.105D+00 0.267D+00
 Coeff-Com:  0.628D+00
 Coeff:      0.132D-04-0.330D-02-0.257D-02 0.556D-02 0.105D+00 0.267D+00
 Coeff:      0.628D+00
 Gap=     0.082 Goal=   None    Shift=    0.000
 RMSDP=4.38D-09 MaxDP=1.07D-07 DE=-3.64D-12 OVMax= 2.66D-07

 SCF Done:  E(RB3LYP) =  -842.072143059     A.U. after   14 cycles
            NFock= 14  Conv=0.44D-08     -V/T= 2.0066
 KE= 8.365536248971D+02 PE=-4.973902924691D+03 EE= 1.783434148658D+03
 Leave Link  502 at Sat Apr  4 20:58:37 2026, MaxMem=  2415919104 cpu:             101.3 elap:               6.4
 (Enter /opt/software/gaussian/g16_avx/g16/l601.exe)
 Copying SCF densities to generalized density rwf, IOpCl= 0 IROHF=0.

 **********************************************************************

            Population analysis using the SCF Density.

 **********************************************************************

 Orbital symmetries:
       Occupied  (AU) (AG) (AU) (AG) (AG) (AU) (AU) (AG) (AG) (AU)
                 (AU) (AG) (AU) (AG) (AG) (AU) (AU) (AG) (AU) (AG)
                 (AU) (AG) (AG) (AU) (AG) (AU) (AG) (AU) (AG) (AU)
                 (AU) (AG) (AU) (AG) (AU) (AG) (AG) (AU) (AG) (AU)
                 (AG) (AU) (AG) (AG) (AU) (AU) (AU) (AU) (AG) (AG)
                 (AU) (AG) (AU) (AU) (AG) (AU) (AG) (AG) (AU) (AU)
                 (AG) (AU) (AG) (AG) (AU) (AG) (AG) (AU) (AU) (AG)
                 (AG) (AU) (AG)
       Virtual   (AU) (AG) (AU) (AU) (AG) (AG) (AU) (AU) (AG) (AU)
                 (AU) (AG) (AG) (AU) (AG) (AU) (AG) (AG) (AU) (AU)
                 (AG) (AG) (AU) (AG) (AG) (AU) (AG) (AU) (AU) (AU)
                 (AG) (AG) (AU) (AU) (AG) (AG) (AU) (AU) (AG) (AU)
                 (AG) (AU) (AG) (AG) (AU) (AG) (AU) (AU) (AG) (AG)
                 (AG) (AU) (AU) (AU) (AG) (AU) (AU) (AG) (AG) (AG)
                 (AG) (AU) (AG) (AU) (AU) (AU) (AG) (AG) (AU) (AU)
                 (AG) (AU) (AG) (AU) (AG) (AG) (AU) (AG) (AU) (AU)
                 (AG) (AU) (AG) (AU) (AG) (AG) (AU) (AG) (AU) (AG)
                 (AU) (AU) (AG) (AG) (AG) (AU) (AU) (AG) (AU) (AU)
                 (AG) (AG) (AU) (AG) (AG) (AU) (AU) (AG) (AG) (AG)
                 (AU) (AG) (AU) (AU) (AG) (AU) (AU) (AG) (AU) (AG)
                 (AG) (AU) (AU) (AU) (AG) (AG) (AU) (AU) (AG) (AU)
                 (AG) (AU) (AG) (AU) (AG) (AU) (AU) (AG) (AG) (AU)
                 (AU) (AG) (AG) (AG) (AU) (AU) (AG) (AG) (AU) (AG)
                 (AU) (AG) (AU)
 The electronic state is 1-AG.
 Alpha  occ. eigenvalues --  -10.14069 -10.14068 -10.13867 -10.13861 -10.13433
 Alpha  occ. eigenvalues --  -10.13432 -10.13305 -10.13305 -10.13060 -10.13060
 Alpha  occ. eigenvalues --  -10.13029 -10.13028 -10.12990 -10.12988 -10.12945
 Alpha  occ. eigenvalues --  -10.12945 -10.12801 -10.12801 -10.12757 -10.12754
 Alpha  occ. eigenvalues --  -10.12409 -10.12405  -0.90910  -0.89374  -0.87192
 Alpha  occ. eigenvalues --   -0.83974  -0.80599  -0.80351  -0.78416  -0.76463
 Alpha  occ. eigenvalues --   -0.75661  -0.72809  -0.69702  -0.68756  -0.63692
 Alpha  occ. eigenvalues --   -0.63287  -0.62482  -0.60813  -0.60463  -0.57639
 Alpha  occ. eigenvalues --   -0.54350  -0.53385  -0.52388  -0.50557  -0.49868
 Alpha  occ. eigenvalues --   -0.47621  -0.46817  -0.46393  -0.45826  -0.44848
 Alpha  occ. eigenvalues --   -0.43414  -0.42602  -0.42401  -0.42056  -0.41975
 Alpha  occ. eigenvalues --   -0.41618  -0.40580  -0.40204  -0.38679  -0.37602
 Alpha  occ. eigenvalues --   -0.36372  -0.36136  -0.34219  -0.33609  -0.33229
 Alpha  occ. eigenvalues --   -0.32478  -0.30909  -0.29380  -0.29142  -0.26307
 Alpha  occ. eigenvalues --   -0.24951  -0.21779  -0.17344
 Alpha virt. eigenvalues --   -0.09131  -0.03835  -0.00886   0.01018   0.04430
 Alpha virt. eigenvalues --    0.04613   0.05686   0.10340   0.10482   0.10537
 Alpha virt. eigenvalues --    0.12484   0.13965   0.14797   0.15300   0.16299
 Alpha virt. eigenvalues --    0.17077   0.17243   0.19223   0.19238   0.19848
 Alpha virt. eigenvalues --    0.20576   0.21524   0.21590   0.23704   0.24982
 Alpha virt. eigenvalues --    0.25047   0.26115   0.27936   0.28803   0.30032
 Alpha virt. eigenvalues --    0.30626   0.33171   0.33404   0.34451   0.35390
 Alpha virt. eigenvalues --    0.36189   0.37124   0.38595   0.40523   0.44055
 Alpha virt. eigenvalues --    0.47994   0.48315   0.50190   0.54037   0.54059
 Alpha virt. eigenvalues --    0.55122   0.57393   0.59509   0.59563   0.62102
 Alpha virt. eigenvalues --    0.63111   0.65088   0.65866   0.66772   0.67829
 Alpha virt. eigenvalues --    0.67883   0.69487   0.69734   0.71806   0.72094
 Alpha virt. eigenvalues --    0.72994   0.73392   0.74023   0.74573   0.75287
 Alpha virt. eigenvalues --    0.75751   0.76202   0.78244   0.78978   0.79526
 Alpha virt. eigenvalues --    0.79700   0.80111   0.80731   0.80883   0.81344
 Alpha virt. eigenvalues --    0.82038   0.82340   0.82888   0.83569   0.83894
 Alpha virt. eigenvalues --    0.84942   0.85824   0.86567   0.87793   0.88548
 Alpha virt. eigenvalues --    0.90645   0.90890   0.91006   0.94788   0.96811
 Alpha virt. eigenvalues --    0.96865   0.97609   0.98506   0.99582   1.00587
 Alpha virt. eigenvalues --    1.00633   1.01738   1.03056   1.03591   1.04124
 Alpha virt. eigenvalues --    1.04833   1.05658   1.06519   1.09012   1.16662
 Alpha virt. eigenvalues --    1.18176   1.20400   1.22382   1.22613   1.29730
 Alpha virt. eigenvalues --    1.30734   1.31946   1.32023   1.32317   1.34354
 Alpha virt. eigenvalues --    1.34829   1.36776   1.37996   1.39088   1.41932
 Alpha virt. eigenvalues --    1.44735   1.45212   1.45523   1.48898   1.49443
 Alpha virt. eigenvalues --    1.50834   1.50868   1.51677   1.52790   1.53604
 Alpha virt. eigenvalues --    1.53782   1.55585   1.56395   1.56720   1.60060
 Alpha virt. eigenvalues --    1.62411   1.65430   1.66889   1.75712   1.76760
 Alpha virt. eigenvalues --    1.78544   1.81802   1.91356   1.94399   1.94943
 Alpha virt. eigenvalues --    1.96553   2.02897   2.05769   2.08195   2.22409
 Alpha virt. eigenvalues --    2.41038   2.48816   2.53715
          Condensed to atoms (all electrons):
               1          2          3          4          5          6
     1  C    5.163917  -0.093699   0.394734   0.509078  -0.077028   0.003053
     2  C   -0.093699   5.146307   0.512690  -0.030854  -0.067598   0.006188
     3  C    0.394734   0.512690   5.161798  -0.105598  -0.016880   0.000074
     4  C    0.509078  -0.030854  -0.105598   5.138443   0.413218  -0.057623
     5  C   -0.077028  -0.067598  -0.016880   0.413218   5.167988   0.480502
     6  C    0.003053   0.006188   0.000074  -0.057623   0.480502   5.203975
     7  C   -0.000134   0.000202   0.000016   0.003221  -0.077143   0.450221
     8  C    0.000000  -0.000000  -0.000000  -0.000059   0.004157  -0.063028
     9  C    0.000010   0.003367  -0.000152   0.000129  -0.013302  -0.080433
    10  C    0.000086  -0.067437   0.003442   0.004993  -0.077542  -0.040676
    11  C   -0.017363   0.399300  -0.079933  -0.066747   0.364193  -0.096525
    12  H    0.389917   0.004014  -0.039256  -0.038756   0.004081  -0.000051
    13  H    0.004388   0.390037  -0.038313  -0.000156   0.003994  -0.000105
    14  H   -0.046802  -0.034677   0.386550   0.005079  -0.000127   0.000000
    15  H   -0.033281  -0.000124   0.004332   0.387143  -0.057564  -0.004097
    16  H    0.000071  -0.000155   0.000017  -0.004654  -0.051071   0.388113
    17  H    0.000000  -0.000000   0.000000  -0.000002   0.000063  -0.003154
    18  H    0.000010  -0.004058   0.000160  -0.000108   0.004693  -0.000060
    19  C   -0.000000  -0.000000  -0.000000   0.000000  -0.000227   0.004669
    20  C   -0.000000  -0.000083   0.000001  -0.000000   0.000095   0.005909
    21  C   -0.000000   0.000001  -0.000000  -0.000000   0.000018   0.000223
    22  C    0.000000   0.000000  -0.000000  -0.000000   0.000001  -0.000101
    23  H    0.000000  -0.000004   0.000000  -0.000000   0.000007  -0.000092
    24  C    0.000000  -0.000000   0.000000  -0.000000   0.000000  -0.000001
    25  C   -0.000000  -0.000000   0.000000   0.000000  -0.000000   0.000001
    26  H    0.000000   0.000000   0.000000   0.000000  -0.000000  -0.000001
    27  C    0.000000   0.000000  -0.000000  -0.000000  -0.000000   0.000000
    28  H   -0.000000  -0.000000   0.000000   0.000000   0.000000  -0.000000
    29  C    0.000000   0.000000   0.000000  -0.000000   0.000000  -0.000000
    30  C   -0.000000  -0.000000   0.000000   0.000000  -0.000000  -0.000000
    31  C    0.000000   0.000000   0.000000   0.000000  -0.000000   0.000000
    32  H    0.000000  -0.000000   0.000000  -0.000000   0.000000   0.000000
    33  C    0.000000   0.000000   0.000000  -0.000000   0.000000   0.000000
    34  H    0.000000  -0.000000   0.000000  -0.000000  -0.000000   0.000000
    35  H    0.000000   0.000000   0.000000   0.000000   0.000000  -0.000000
    36  H    0.000000   0.000000   0.000000   0.000000   0.000000   0.000000
               7          8          9         10         11         12
     1  C   -0.000134   0.000000   0.000010   0.000086  -0.017363   0.389917
     2  C    0.000202  -0.000000   0.003367  -0.067437   0.399300   0.004014
     3  C    0.000016  -0.000000  -0.000152   0.003442  -0.079933  -0.039256
     4  C    0.003221  -0.000059   0.000129   0.004993  -0.066747  -0.038756
     5  C   -0.077143   0.004157  -0.013302  -0.077542   0.364193   0.004081
     6  C    0.450221  -0.063028  -0.080433  -0.040676  -0.096525  -0.000051
     7  C    5.126130   0.437798   0.388508  -0.075667  -0.014851   0.000000
     8  C    0.437798   5.219666  -0.079226   0.005640  -0.000022  -0.000000
     9  C    0.388508  -0.079226   5.165064   0.419862  -0.071821   0.000000
    10  C   -0.075667   0.005640   0.419862   5.205094   0.471535   0.000001
    11  C   -0.014851  -0.000022  -0.071821   0.471535   5.207666  -0.000195
    12  H    0.000000  -0.000000   0.000000   0.000001  -0.000195   0.499964
    13  H    0.000001  -0.000000   0.000063  -0.003129  -0.048021  -0.000053
    14  H    0.000000   0.000000   0.000000  -0.000059   0.003902  -0.004587
    15  H    0.000048  -0.000002   0.000002  -0.000104   0.005222  -0.004267
    16  H   -0.045547  -0.004935   0.004443   0.000073   0.006155  -0.000004
    17  H   -0.044353   0.400655   0.004532  -0.000095   0.000007  -0.000000
    18  H    0.003604  -0.000083  -0.043034   0.392796  -0.050912  -0.000000
    19  C   -0.087840   0.443368  -0.015319   0.000112   0.000022   0.000000
    20  C   -0.069705  -0.032272   0.443368  -0.071807   0.004371   0.000000
    21  C   -0.016847  -0.069705  -0.087840   0.004596  -0.000218  -0.000000
    22  C    0.004596  -0.071807   0.000112  -0.000001   0.000000  -0.000000
    23  H    0.004027  -0.000121  -0.045025  -0.004560   0.000168   0.000000
    24  C    0.000223   0.005909   0.004669  -0.000101   0.000001   0.000000
    25  C   -0.000218   0.004371   0.000022   0.000000  -0.000000   0.000000
    26  H    0.000108  -0.002494   0.000005  -0.000000   0.000000   0.000000
    27  C    0.000018   0.000095  -0.000227   0.000001  -0.000000   0.000000
    28  H    0.000005  -0.000101   0.000216  -0.000003   0.000000   0.000000
    29  C    0.000001  -0.000083  -0.000000   0.000000  -0.000000   0.000000
    30  C   -0.000000  -0.000000   0.000000  -0.000000   0.000000   0.000000
    31  C   -0.000000   0.000001  -0.000000  -0.000000   0.000000   0.000000
    32  H   -0.000000  -0.000001   0.000000   0.000000  -0.000000   0.000000
    33  C   -0.000000  -0.000000  -0.000000   0.000000  -0.000000   0.000000
    34  H    0.000000  -0.000000  -0.000000  -0.000000   0.000000   0.000000
    35  H    0.000000  -0.000000  -0.000000   0.000000   0.000000   0.000000
    36  H   -0.000000   0.000000   0.000000  -0.000000   0.000000   0.000000
              13         14         15         16         17         18
     1  C    0.004388  -0.046802  -0.033281   0.000071   0.000000   0.000010
     2  C    0.390037  -0.034677  -0.000124  -0.000155  -0.000000  -0.004058
     3  C   -0.038313   0.386550   0.004332   0.000017   0.000000   0.000160
     4  C   -0.000156   0.005079   0.387143  -0.004654  -0.000002  -0.000108
     5  C    0.003994  -0.000127  -0.057564  -0.051071   0.000063   0.004693
     6  C   -0.000105   0.000000  -0.004097   0.388113  -0.003154  -0.000060
     7  C    0.000001   0.000000   0.000048  -0.045547  -0.044353   0.003604
     8  C   -0.000000   0.000000  -0.000002  -0.004935   0.400655  -0.000083
     9  C    0.000063   0.000000   0.000002   0.004443   0.004532  -0.043034
    10  C   -0.003129  -0.000059  -0.000104   0.000073  -0.000095   0.392796
    11  C   -0.048021   0.003902   0.005222   0.006155   0.000007  -0.050912
    12  H   -0.000053  -0.004587  -0.004267  -0.000004  -0.000000  -0.000000
    13  H    0.511014  -0.004616   0.000004   0.000001   0.000000   0.004695
    14  H   -0.004616   0.511665  -0.000065  -0.000000  -0.000000  -0.000004
    15  H    0.000004  -0.000065   0.516452   0.006114   0.000002   0.000001
    16  H    0.000001  -0.000000   0.006114   0.522736   0.003960   0.000007
    17  H    0.000000  -0.000000   0.000002   0.003960   0.495541   0.000001
    18  H    0.004695  -0.000004   0.000001   0.000007   0.000001   0.516678
    19  C    0.000000  -0.000000  -0.000000   0.000216  -0.045025   0.000005
    20  C   -0.000001  -0.000000  -0.000000  -0.000101  -0.000121  -0.002494
    21  C   -0.000000   0.000000   0.000000   0.000005   0.004027   0.000108
    22  C    0.000000   0.000000  -0.000000  -0.000003  -0.004560  -0.000000
    23  H    0.000001  -0.000000   0.000000   0.000001   0.000006   0.003435
    24  C    0.000000  -0.000000   0.000000  -0.000000  -0.000092  -0.000001
    25  C   -0.000000   0.000000   0.000000   0.000000   0.000168   0.000000
    26  H   -0.000000  -0.000000  -0.000000   0.000001   0.003435   0.000000
    27  C    0.000000   0.000000  -0.000000   0.000000   0.000007  -0.000000
    28  H   -0.000000  -0.000000  -0.000000   0.000000   0.000001   0.000001
    29  C   -0.000000   0.000000  -0.000000  -0.000000  -0.000004   0.000000
    30  C   -0.000000   0.000000  -0.000000   0.000000  -0.000000   0.000000
    31  C    0.000000   0.000000   0.000000   0.000000   0.000000   0.000000
    32  H   -0.000000   0.000000   0.000000  -0.000000   0.000001  -0.000000
    33  C    0.000000   0.000000   0.000000  -0.000000   0.000000   0.000000
    34  H    0.000000   0.000000  -0.000000  -0.000000   0.000000  -0.000000
    35  H    0.000000   0.000000   0.000000  -0.000000  -0.000000  -0.000000
    36  H    0.000000   0.000000   0.000000   0.000000   0.000000   0.000000
              19         20         21         22         23         24
     1  C   -0.000000  -0.000000  -0.000000   0.000000   0.000000   0.000000
     2  C   -0.000000  -0.000083   0.000001   0.000000  -0.000004  -0.000000
     3  C   -0.000000   0.000001  -0.000000  -0.000000   0.000000   0.000000
     4  C    0.000000  -0.000000  -0.000000  -0.000000  -0.000000  -0.000000
     5  C   -0.000227   0.000095   0.000018   0.000001   0.000007   0.000000
     6  C    0.004669   0.005909   0.000223  -0.000101  -0.000092  -0.000001
     7  C   -0.087840  -0.069705  -0.016847   0.004596   0.004027   0.000223
     8  C    0.443368  -0.032272  -0.069705  -0.071807  -0.000121   0.005909
     9  C   -0.015319   0.443368  -0.087840   0.000112  -0.045025   0.004669
    10  C    0.000112  -0.071807   0.004596  -0.000001  -0.004560  -0.000101
    11  C    0.000022   0.004371  -0.000218   0.000000   0.000168   0.000001
    12  H    0.000000   0.000000  -0.000000  -0.000000   0.000000   0.000000
    13  H    0.000000  -0.000001  -0.000000   0.000000   0.000001   0.000000
    14  H   -0.000000  -0.000000   0.000000   0.000000  -0.000000  -0.000000
    15  H   -0.000000  -0.000000   0.000000  -0.000000   0.000000   0.000000
    16  H    0.000216  -0.000101   0.000005  -0.000003   0.000001  -0.000000
    17  H   -0.045025  -0.000121   0.004027  -0.004560   0.000006  -0.000092
    18  H    0.000005  -0.002494   0.000108  -0.000000   0.003435  -0.000001
    19  C    5.165064  -0.079226   0.388508   0.419862   0.004532  -0.080433
    20  C   -0.079226   5.219666   0.437798   0.005640   0.400655  -0.063028
    21  C    0.388508   0.437798   5.126130  -0.075667  -0.044353   0.450221
    22  C    0.419862   0.005640  -0.075667   5.205094  -0.000095  -0.040676
    23  H    0.004532   0.400655  -0.044353  -0.000095   0.495541  -0.003154
    24  C   -0.080433  -0.063028   0.450221  -0.040676  -0.003154   5.203975
    25  C   -0.071821  -0.000022  -0.014851   0.471535   0.000007  -0.096525
    26  H   -0.043034  -0.000083   0.003604   0.392796   0.000001  -0.000060
    27  C   -0.013302   0.004157  -0.077143  -0.077542   0.000063   0.480502
    28  H    0.004443  -0.004935  -0.045547   0.000073   0.003960   0.388113
    29  C    0.003367  -0.000000   0.000202  -0.067437  -0.000000   0.006188
    30  C    0.000129  -0.000059   0.003221   0.004993  -0.000002  -0.057623
    31  C   -0.000152  -0.000000   0.000016   0.003442   0.000000   0.000074
    32  H    0.000063  -0.000000   0.000001  -0.003129   0.000000  -0.000105
    33  C    0.000010   0.000000  -0.000134   0.000086   0.000000   0.003053
    34  H    0.000002  -0.000002   0.000048  -0.000104   0.000002  -0.004097
    35  H    0.000000   0.000000   0.000000  -0.000059  -0.000000   0.000000
    36  H    0.000000  -0.000000   0.000000   0.000001  -0.000000  -0.000051
              25         26         27         28         29         30
     1  C   -0.000000   0.000000   0.000000  -0.000000   0.000000  -0.000000
     2  C   -0.000000   0.000000   0.000000  -0.000000   0.000000  -0.000000
     3  C    0.000000   0.000000  -0.000000   0.000000   0.000000   0.000000
     4  C    0.000000   0.000000  -0.000000   0.000000  -0.000000   0.000000
     5  C   -0.000000  -0.000000  -0.000000   0.000000   0.000000  -0.000000
     6  C    0.000001  -0.000001   0.000000  -0.000000  -0.000000  -0.000000
     7  C   -0.000218   0.000108   0.000018   0.000005   0.000001  -0.000000
     8  C    0.004371  -0.002494   0.000095  -0.000101  -0.000083  -0.000000
     9  C    0.000022   0.000005  -0.000227   0.000216  -0.000000   0.000000
    10  C    0.000000  -0.000000   0.000001  -0.000003   0.000000  -0.000000
    11  C   -0.000000   0.000000  -0.000000   0.000000  -0.000000   0.000000
    12  H    0.000000   0.000000   0.000000   0.000000   0.000000   0.000000
    13  H   -0.000000  -0.000000   0.000000  -0.000000  -0.000000  -0.000000
    14  H    0.000000  -0.000000   0.000000  -0.000000   0.000000   0.000000
    15  H    0.000000  -0.000000  -0.000000  -0.000000  -0.000000  -0.000000
    16  H    0.000000   0.000001   0.000000   0.000000  -0.000000   0.000000
    17  H    0.000168   0.003435   0.000007   0.000001  -0.000004  -0.000000
    18  H    0.000000   0.000000  -0.000000   0.000001   0.000000   0.000000
    19  C   -0.071821  -0.043034  -0.013302   0.004443   0.003367   0.000129
    20  C   -0.000022  -0.000083   0.004157  -0.004935  -0.000000  -0.000059
    21  C   -0.014851   0.003604  -0.077143  -0.045547   0.000202   0.003221
    22  C    0.471535   0.392796  -0.077542   0.000073  -0.067437   0.004993
    23  H    0.000007   0.000001   0.000063   0.003960  -0.000000  -0.000002
    24  C   -0.096525  -0.000060   0.480502   0.388113   0.006188  -0.057623
    25  C    5.207666  -0.050912   0.364193   0.006155   0.399300  -0.066747
    26  H   -0.050912   0.516678   0.004693   0.000007  -0.004058  -0.000108
    27  C    0.364193   0.004693   5.167988  -0.051071  -0.067598   0.413218
    28  H    0.006155   0.000007  -0.051071   0.522736  -0.000155  -0.004654
    29  C    0.399300  -0.004058  -0.067598  -0.000155   5.146307  -0.030854
    30  C   -0.066747  -0.000108   0.413218  -0.004654  -0.030854   5.138443
    31  C   -0.079933   0.000160  -0.016880   0.000017   0.512690  -0.105598
    32  H   -0.048021   0.004695   0.003994   0.000001   0.390037  -0.000156
    33  C   -0.017363   0.000010  -0.077028   0.000071  -0.093699   0.509078
    34  H    0.005222   0.000001  -0.057564   0.006114  -0.000124   0.387143
    35  H    0.003902  -0.000004  -0.000127  -0.000000  -0.034677   0.005079
    36  H   -0.000195  -0.000000   0.004081  -0.000004   0.004014  -0.038756
              31         32         33         34         35         36
[...]
               7          8          9         10         11         12
     1  C   -0.000142   0.000001   0.000008   0.000137  -0.014189   0.388649
     2  C    0.000175  -0.000001   0.003349  -0.064709   0.401037   0.003782
     3  C    0.000008  -0.000000  -0.000142   0.003086  -0.081228  -0.039735
     4  C    0.003349  -0.000075   0.000175   0.004223  -0.059043  -0.040180
     5  C   -0.082461   0.003374  -0.009155  -0.069813   0.403546   0.004019
     6  C    0.428291  -0.066404  -0.064795  -0.030034  -0.069799  -0.000065
     7  C    5.098233   0.444245   0.406148  -0.064784  -0.009157   0.000000
     8  C    0.444245   5.202365  -0.066945   0.004531   0.000167  -0.000000
     9  C    0.406148  -0.066945   5.098225   0.428300  -0.082466   0.000000
    10  C   -0.064784   0.004531   0.428300   5.194740   0.467406  -0.000000
    11  C   -0.009157   0.000167  -0.082466   0.467406   5.115825  -0.000100
    12  H    0.000000  -0.000000   0.000000  -0.000000  -0.000100   0.502383
    13  H    0.000003  -0.000000   0.000083  -0.002425  -0.045655  -0.000050
    14  H    0.000000   0.000000   0.000000  -0.000065   0.004018  -0.003310
    15  H    0.000083  -0.000001   0.000003  -0.000065   0.003272  -0.004138
    16  H   -0.042894  -0.002579   0.003267  -0.000037   0.003491  -0.000002
    17  H   -0.043147   0.391247   0.003362  -0.000075   0.000006  -0.000000
    18  H    0.003267  -0.000073  -0.042897   0.390808  -0.043033  -0.000000
    19  C   -0.081832   0.444235  -0.008694   0.000180   0.000006   0.000000
    20  C   -0.066967  -0.030390   0.444235  -0.066398   0.003374   0.000000
    21  C   -0.008692  -0.066967  -0.081832   0.003337  -0.000145  -0.000000
    22  C    0.003337  -0.066398   0.000180  -0.000001  -0.000000  -0.000000
    23  H    0.003362  -0.000038  -0.043144  -0.002695   0.000107   0.000000
    24  C    0.000180   0.004532   0.003338  -0.000077   0.000000   0.000000
    25  C   -0.000145   0.003374   0.000006  -0.000000  -0.000000   0.000000
    26  H    0.000095  -0.002579   0.000005  -0.000000   0.000000  -0.000000
    27  C    0.000006   0.000167  -0.000145   0.000000  -0.000000   0.000000
    28  H    0.000005  -0.000073   0.000095  -0.000002   0.000000  -0.000000
    29  C    0.000000  -0.000075  -0.000000   0.000000  -0.000000   0.000000
    30  C   -0.000000  -0.000001   0.000000  -0.000000   0.000000   0.000000
    31  C   -0.000000   0.000001  -0.000000  -0.000000   0.000000   0.000000
    32  H   -0.000000  -0.000001   0.000000   0.000000  -0.000000   0.000000
    33  C   -0.000000  -0.000000  -0.000000   0.000000  -0.000000   0.000000
    34  H    0.000000  -0.000000  -0.000000   0.000000   0.000000   0.000000
    35  H    0.000000  -0.000000  -0.000000   0.000000   0.000000   0.000000
    36  H   -0.000000   0.000000   0.000000  -0.000000   0.000000   0.000000
              13         14         15         16         17         18
     1  C    0.003666  -0.039735  -0.038084   0.000111   0.000000   0.000008
     2  C    0.390868  -0.040180  -0.000142  -0.000077  -0.000000  -0.002756
     3  C   -0.038082   0.388646   0.003667   0.000008   0.000000   0.000111
     4  C   -0.000142   0.003782   0.390868  -0.002756  -0.000002  -0.000077
     5  C    0.003272  -0.000101  -0.045652  -0.043040   0.000107   0.003491
     6  C   -0.000065  -0.000000  -0.002426   0.390809  -0.002695  -0.000037
     7  C    0.000003   0.000000   0.000083  -0.042894  -0.043147   0.003267
     8  C   -0.000000   0.000000  -0.000001  -0.002579   0.391247  -0.000073
     9  C    0.000083   0.000000   0.000003   0.003267   0.003362  -0.042897
    10  C   -0.002425  -0.000065  -0.000065  -0.000037  -0.000075   0.390808
    11  C   -0.045655   0.004018   0.003272   0.003491   0.000006  -0.043033
    12  H   -0.000050  -0.003310  -0.004138  -0.000002  -0.000000  -0.000000
    13  H    0.503400  -0.004138   0.000003   0.000001   0.000000   0.003817
    14  H   -0.004138   0.502387  -0.000050  -0.000000   0.000000  -0.000002
    15  H    0.000003  -0.000050   0.503401   0.003817   0.000001   0.000001
    16  H    0.000001  -0.000000   0.003817   0.505036   0.003856   0.000005
    17  H    0.000000   0.000000   0.000001   0.003856   0.504971   0.000001
    18  H    0.003817  -0.000002   0.000001   0.000005   0.000001   0.505035
    19  C    0.000000  -0.000000  -0.000000   0.000095  -0.043144   0.000005
    20  C   -0.000001  -0.000000  -0.000000  -0.000073  -0.000038  -0.002579
    21  C   -0.000000   0.000000   0.000000   0.000005   0.003362   0.000095
    22  C    0.000000   0.000000   0.000000  -0.000002  -0.002695  -0.000000
    23  H    0.000001  -0.000000   0.000000   0.000001   0.000005   0.003856
    24  C    0.000000  -0.000000   0.000000  -0.000000  -0.000075  -0.000002
    25  C   -0.000000   0.000000   0.000000   0.000000   0.000107   0.000000
    26  H    0.000000  -0.000000  -0.000000   0.000001   0.003856   0.000000
    27  C    0.000000   0.000000  -0.000000   0.000000   0.000006   0.000000
    28  H   -0.000000  -0.000000   0.000000   0.000000   0.000001   0.000001
    29  C   -0.000000   0.000000  -0.000000  -0.000000  -0.000002   0.000000
    30  C   -0.000000   0.000000  -0.000000   0.000000  -0.000000  -0.000000
    31  C    0.000000   0.000000   0.000000   0.000000   0.000000  -0.000000
    32  H   -0.000000   0.000000   0.000000  -0.000000   0.000001   0.000000
    33  C    0.000000   0.000000   0.000000  -0.000000   0.000000   0.000000
    34  H    0.000000   0.000000  -0.000000   0.000000   0.000000  -0.000000
    35  H    0.000000   0.000000   0.000000  -0.000000  -0.000000  -0.000000
    36  H    0.000000   0.000000   0.000000  -0.000000   0.000000  -0.000000
              19         20         21         22         23         24
     1  C   -0.000000  -0.000000  -0.000000   0.000000   0.000000  -0.000000
     2  C   -0.000000  -0.000075   0.000000   0.000000  -0.000002  -0.000000
     3  C   -0.000000   0.000001  -0.000000  -0.000000   0.000000   0.000000
     4  C    0.000000  -0.000001  -0.000000  -0.000000  -0.000000   0.000000
     5  C   -0.000145   0.000167   0.000006   0.000000   0.000006  -0.000000
     6  C    0.003338   0.004532   0.000180  -0.000077  -0.000075  -0.000001
     7  C   -0.081832  -0.066967  -0.008692   0.003337   0.003362   0.000180
     8  C    0.444235  -0.030390  -0.066967  -0.066398  -0.000038   0.004532
     9  C   -0.008694   0.444235  -0.081832   0.000180  -0.043144   0.003338
    10  C    0.000180  -0.066398   0.003337  -0.000001  -0.002695  -0.000077
    11  C    0.000006   0.003374  -0.000145  -0.000000   0.000107   0.000000
    12  H    0.000000   0.000000  -0.000000  -0.000000   0.000000   0.000000
    13  H    0.000000  -0.000001  -0.000000   0.000000   0.000001   0.000000
    14  H   -0.000000  -0.000000   0.000000   0.000000  -0.000000  -0.000000
    15  H   -0.000000  -0.000000   0.000000   0.000000   0.000000   0.000000
    16  H    0.000095  -0.000073   0.000005  -0.000002   0.000001  -0.000000
    17  H   -0.043144  -0.000038   0.003362  -0.002695   0.000005  -0.000075
    18  H    0.000005  -0.002579   0.000095  -0.000000   0.003856  -0.000002
    19  C    5.098225  -0.066945   0.406148   0.428300   0.003362  -0.064795
    20  C   -0.066945   5.202365   0.444245   0.004531   0.391247  -0.066404
    21  C    0.406148   0.444245   5.098233  -0.064784  -0.043147   0.428291
    22  C    0.428300   0.004531  -0.064784   5.194740  -0.000075  -0.030034
    23  H    0.003362   0.391247  -0.043147  -0.000075   0.504971  -0.002695
    24  C   -0.064795  -0.066404   0.428291  -0.030034  -0.002695   5.194740
    25  C   -0.082466   0.000167  -0.009157   0.467406   0.000006  -0.069799
    26  H   -0.042897  -0.000073   0.003267   0.390808   0.000001  -0.000037
    27  C   -0.009155   0.003374  -0.082461  -0.069813   0.000107   0.467401
    28  H    0.003267  -0.002579  -0.042894  -0.000037   0.003856   0.390809
    29  C    0.003349  -0.000001   0.000175  -0.064709  -0.000000   0.004222
    30  C    0.000175  -0.000075   0.003349   0.004223  -0.000002  -0.064715
    31  C   -0.000142  -0.000000   0.000008   0.003086   0.000000   0.000137
    32  H    0.000083  -0.000000   0.000003  -0.002425   0.000000  -0.000065
    33  C    0.000008   0.000001  -0.000142   0.000137   0.000000   0.003086
    34  H    0.000003  -0.000001   0.000083  -0.000065   0.000001  -0.002426
    35  H    0.000000   0.000000   0.000000  -0.000065   0.000000  -0.000000
    36  H    0.000000  -0.000000   0.000000  -0.000000  -0.000000  -0.000065
              25         26         27         28         29         30
     1  C   -0.000000   0.000000   0.000000  -0.000000   0.000000  -0.000000
     2  C   -0.000000   0.000000   0.000000  -0.000000   0.000000  -0.000000
     3  C    0.000000  -0.000000  -0.000000   0.000000  -0.000000   0.000000
     4  C    0.000000  -0.000000  -0.000000   0.000000  -0.000000   0.000000
     5  C   -0.000000   0.000000  -0.000000   0.000000   0.000000  -0.000000
     6  C    0.000000  -0.000002  -0.000000  -0.000000  -0.000000   0.000000
     7  C   -0.000145   0.000095   0.000006   0.000005   0.000000  -0.000000
     8  C    0.003374  -0.002579   0.000167  -0.000073  -0.000075  -0.000001
     9  C    0.000006   0.000005  -0.000145   0.000095  -0.000000   0.000000
    10  C   -0.000000  -0.000000   0.000000  -0.000002   0.000000  -0.000000
    11  C   -0.000000   0.000000  -0.000000   0.000000  -0.000000   0.000000
    12  H    0.000000  -0.000000   0.000000  -0.000000   0.000000   0.000000
    13  H   -0.000000   0.000000   0.000000  -0.000000  -0.000000  -0.000000
    14  H    0.000000  -0.000000   0.000000  -0.000000   0.000000   0.000000
    15  H    0.000000  -0.000000  -0.000000   0.000000  -0.000000  -0.000000
    16  H    0.000000   0.000001   0.000000   0.000000  -0.000000   0.000000
    17  H    0.000107   0.003856   0.000006   0.000001  -0.000002  -0.000000
    18  H    0.000000   0.000000   0.000000   0.000001   0.000000  -0.000000
    19  C   -0.082466  -0.042897  -0.009155   0.003267   0.003349   0.000175
    20  C    0.000167  -0.000073   0.003374  -0.002579  -0.000001  -0.000075
    21  C   -0.009157   0.003267  -0.082461  -0.042894   0.000175   0.003349
    22  C    0.467406   0.390808  -0.069813  -0.000037  -0.064709   0.004223
    23  H    0.000006   0.000001   0.000107   0.003856  -0.000000  -0.000002
    24  C   -0.069799  -0.000037   0.467401   0.390809   0.004222  -0.064715
    25  C    5.115825  -0.043033   0.403546   0.003491   0.401037  -0.059043
    26  H   -0.043033   0.505035   0.003491   0.000005  -0.002756  -0.000077
    27  C    0.403546   0.003491   5.115847  -0.043040  -0.059036   0.401037
    28  H    0.003491   0.000005  -0.043040   0.505036  -0.000077  -0.002756
    29  C    0.401037  -0.002756  -0.059036  -0.000077   5.151801  -0.023536
    30  C   -0.059043  -0.000077   0.401037  -0.002756  -0.023536   5.151820
    31  C   -0.081228   0.000111  -0.014188   0.000008   0.496706  -0.083466
    32  H   -0.045655   0.003817   0.003272   0.000001   0.390868  -0.000142
    33  C   -0.014189   0.000008  -0.081230   0.000111  -0.083468   0.496704
    34  H    0.003272   0.000001  -0.045652   0.003817  -0.000142   0.390868
    35  H    0.004018  -0.000002  -0.000101  -0.000000  -0.040180   0.003782
    36  H   -0.000100  -0.000000   0.004019  -0.000002   0.003782  -0.040180
              31         32         33         34         35         36
     1  C    0.000000   0.000000   0.000000   0.000000   0.000000   0.000000
     2  C   -0.000000  -0.000000   0.000000  -0.000000   0.000000   0.000000
     3  C    0.000000   0.000000   0.000000   0.000000   0.000000   0.000000
     4  C    0.000000  -0.000000  -0.000000  -0.000000   0.000000   0.000000
     5  C   -0.000000   0.000000   0.000000  -0.000000   0.000000   0.000000
     6  C    0.000000   0.000000  -0.000000   0.000000  -0.000000   0.000000
     7  C   -0.000000  -0.000000  -0.000000   0.000000   0.000000  -0.000000
     8  C    0.000001  -0.000001  -0.000000  -0.000000  -0.000000   0.000000
     9  C   -0.000000   0.000000  -0.000000  -0.000000  -0.000000   0.000000
    10  C   -0.000000   0.000000   0.000000   0.000000   0.000000  -0.000000
    11  C    0.000000  -0.000000  -0.000000   0.000000   0.000000   0.000000
    12  H    0.000000   0.000000   0.000000   0.000000   0.000000   0.000000
    13  H    0.000000  -0.000000   0.000000   0.000000   0.000000   0.000000
    14  H    0.000000   0.000000   0.000000   0.000000   0.000000   0.000000
    15  H    0.000000   0.000000   0.000000  -0.000000   0.000000   0.000000
    16  H    0.000000  -0.000000  -0.000000   0.000000  -0.000000  -0.000000
    17  H    0.000000   0.000001   0.000000   0.000000  -0.000000   0.000000
    18  H   -0.000000   0.000000   0.000000  -0.000000  -0.000000  -0.000000
    19  C   -0.000142   0.000083   0.000008   0.000003   0.000000   0.000000
    20  C   -0.000000  -0.000000   0.000001  -0.000001   0.000000  -0.000000
    21  C    0.000008   0.000003  -0.000142   0.000083   0.000000   0.000000
    22  C    0.003086  -0.002425   0.000137  -0.000065  -0.000065  -0.000000
    23  H    0.000000   0.000000   0.000000   0.000001   0.000000  -0.000000
    24  C    0.000137  -0.000065   0.003086  -0.002426  -0.000000  -0.000065
    25  C   -0.081228  -0.045655  -0.014189   0.003272   0.004018  -0.000100
    26  H    0.000111   0.003817   0.000008   0.000001  -0.000002  -0.000000
    27  C   -0.014188   0.003272  -0.081230  -0.045652  -0.000101   0.004019
    28  H    0.000008   0.000001   0.000111   0.003817  -0.000000  -0.000002
    29  C    0.496706   0.390868  -0.083468  -0.000142  -0.040180   0.003782
    30  C   -0.083466  -0.000142   0.496704   0.390868   0.003782  -0.040180
    31  C    5.144617  -0.038082   0.406146   0.003667   0.388646  -0.039735
    32  H   -0.038082   0.503400   0.003666   0.000003  -0.004138  -0.000050
    33  C    0.406146   0.003666   5.144618  -0.038084  -0.039735   0.388649
    34  H    0.003667   0.000003  -0.038084   0.503401  -0.000050  -0.004138
    35  H    0.388646  -0.004138  -0.039735  -0.000050   0.502387  -0.003310
    36  H   -0.039735  -0.000050   0.388649  -0.004138  -0.003310   0.502383
 Mulliken charges:
               1
     1  C   -0.186284
     2  C   -0.177958
     3  C   -0.186291
     4  C   -0.177966
     5  C    0.002547
     6  C   -0.195546
     7  C    0.009431
     8  C   -0.195640
     9  C    0.009434
    10  C   -0.195570
    11  C    0.002559
    12  H    0.188748
    13  H    0.185444
    14  H    0.188747
    15  H    0.185443
    16  H    0.180957
    17  H    0.180988
    18  H    0.180958
    19  C    0.009434
    20  C   -0.195640
    21  C    0.009431
    22  C   -0.195570
    23  H    0.180988
    24  C   -0.195546
    25  C    0.002559
    26  H    0.180958
    27  C    0.002547
    28  H    0.180957
    29  C   -0.177958
    30  C   -0.177966
    31  C   -0.186291
    32  H    0.185444
    33  C   -0.186284
    34  H    0.185443
    35  H    0.188747
    36  H    0.188748
 Sum of Mulliken charges =  -0.00000
 Mulliken charges with hydrogens summed into heavy atoms:
               1
     1  C    0.002463
     2  C    0.007486
     3  C    0.002456
     4  C    0.007477
     5  C    0.002547
     6  C   -0.014589
     7  C    0.009431
     8  C   -0.014651
     9  C    0.009434
    10  C   -0.014613
    11  C    0.002559
    19  C    0.009434
    20  C   -0.014651
    21  C    0.009431
    22  C   -0.014613
    24  C   -0.014589
    25  C    0.002559
    27  C    0.002547
    29  C    0.007486
    30  C    0.007477
    31  C    0.002456
    33  C    0.002463
 Electronic spatial extent (au):  <R**2>=           9329.7833
 Charge=             -0.0000 electrons
 Dipole moment (field-independent basis, Debye):
    X=             -0.0000    Y=             -0.0000    Z=             -0.0000  Tot=              0.0000
 Quadrupole moment (field-independent basis, Debye-Ang):
   XX=           -130.0827   YY=           -115.5974   ZZ=           -105.8375
   XY=             13.4156   XZ=             -3.4772   YZ=              0.9293
 Traceless Quadrupole moment (field-independent basis, Debye-Ang):
   XX=            -12.9102   YY=              1.5751   ZZ=             11.3350
   XY=             13.4156   XZ=             -3.4772   YZ=              0.9293
 Octapole moment (field-independent basis, Debye-Ang**2):
  XXX=              0.0000  YYY=              0.0000  ZZZ=              0.0000  XYY=             -0.0000
  XXY=              0.0000  XXZ=              0.0000  XZZ=              0.0000  YZZ=              0.0000
  YYZ=             -0.0000  XYZ=             -0.0000
 Hexadecapole moment (field-independent basis, Debye-Ang**3):
 XXXX=          -1264.8904 YYYY=          -1578.7097 ZZZZ=          -8937.3065 XXXY=           -586.3997
 XXXZ=           1435.6492 YYYX=           -486.0222 YYYZ=           1197.3448 ZZZX=           1049.9653
 ZZZY=           1127.9201 XXYY=           -395.4309 XXZZ=          -1938.8230 YYZZ=          -1874.6931
 XXYZ=            338.3766 YYXZ=            341.8451 ZZXY=             20.2159
 N-N= 1.491295918332D+03 E-N=-4.931677233385D+03  KE= 8.349247474836D+02
 Symmetry AG   KE= 4.185572970629D+02
 Symmetry AU   KE= 4.163674504207D+02
 No NMR shielding tensors so no spin-rotation constants.
 Leave Link  601 at Sat Apr  4 20:59:24 2026, MaxMem=  2415919104 cpu:               3.0 elap:               0.2
 (Enter /opt/software/gaussian/g16_avx/g16/l9999.exe)
 Unable to Open any file for archive entry.
 1\1\GINC-WEE20\FOpt\RB3LYP\3-21G*\C22H14\YYB25113\04-Apr-2026\0\\#p op
 t B3LYP/3-21g*\\Molecule_PENCEN_16c\\0,1\C,-1.3341698154,-1.0170000801
 ,5.9273661385\C,-1.9575509987,-2.4577098537,4.0695222737\C,-1.96779819
 22,-2.1956514801,5.4088062265\C,-0.7105734451,-0.1380598946,5.09003493
 39\C,-0.6706349762,-0.3668396307,3.670534128\C,-0.0432676535,0.5106860
 795,2.7960156973\C,-0.0086364828,0.2776444562,1.3998195314\C,0.6228682
 089,1.1589357621,0.5098574804\C,-0.6531973495,-0.9215865261,0.87224904
 74\C,-1.2887198147,-1.8065632898,1.7765900299\C,-1.314304432,-1.564298
 9595,3.1436953852\H,-1.3572797809,-0.8335361624,6.9951947789\H,-2.4356
 789853,-3.3477971845,3.6743388765\H,-2.4558184879,-2.8765936675,6.0962
 909619\H,-0.2306762228,0.7538392404,5.4789646645\H,0.4362297519,1.4023
 748504,3.1881667418\H,1.102192143,2.0505337701,0.9021914947\H,-1.76810
 65765,-2.6981228201,1.3839940033\C,0.6531973495,0.9215865261,-0.872249
 0474\C,-0.6228682089,-1.1589357621,-0.5098574804\C,0.0086364828,-0.277
 6444562,-1.3998195314\C,1.2887198147,1.8065632898,-1.7765900299\H,-1.1
 02192143,-2.0505337701,-0.9021914947\C,0.0432676535,-0.5106860795,-2.7
 960156973\C,1.314304432,1.5642989595,-3.1436953852\H,1.7681065765,2.69
 81228201,-1.3839940033\C,0.6706349762,0.3668396307,-3.670534128\H,-0.4
 362297519,-1.4023748504,-3.1881667418\C,1.9575509987,2.4577098537,-4.0
 695222737\C,0.7105734451,0.1380598946,-5.0900349339\C,1.9677981922,2.1
 956514801,-5.4088062265\H,2.4356789853,3.3477971845,-3.6743388765\C,1.
 3341698154,1.0170000801,-5.9273661385\H,0.2306762228,-0.7538392404,-5.
 4789646645\H,2.4558184879,2.8765936675,-6.0962909619\H,1.3572797809,0.
 8335361624,-6.9951947789\\Version=ES64L-G16RevC.01\State=1-AG\HF=-842.
 1321161\RMSD=4.470e-09\RMSF=1.774e-05\Dipole=0.,0.,0.\Quadrupole=-9.59
 83884,1.1710612,8.4273272,9.9741537,-2.5851839,0.6908894\PG=CI [X(C22H
 14)]\\@
 The archive entry for this job was punched.


 GARLIC THEN HAVE POWER TO SAVE FROM DEATH
 BEAR WITH IT THOUGH IT MAKETH UNSAVORY BREATH,
 AND SCORN NOT GARLIC LIKE SOME THAT THINK
 IT ONLY MAKETH MEN WINK AND DRINK AND STINK.
   --  SIR JOHN HARRINGTON,
       "THE ENGLISHMAN'S DOCTOR", 1609
 Job cpu time:       0 days  0 hours 14 minutes  1.2 seconds.
 Elapsed time:       0 days  0 hours  0 minutes 55.1 seconds.
 File lengths (MBytes):  RWF=     96 Int=      0 D2E=      0 Chk=     12 Scr=      8
 Normal termination of Gaussian 16 at Sat Apr  4 20:59:24 2026.
