 Entering Gaussian System, Link 0=g16
 Initial command:
 /opt/software/gaussian/g16_avx/g16/l1.exe "/users/yyb25113/CH934/8_Cores/Gau-2243187.inp" -scrdir="/users/yyb25113/CH934/8_Cores/"
 Entering Link 1 = /opt/software/gaussian/g16_avx/g16/l1.exe PID=   2243188.
  
 Copyright (c) 1988-2019, Gaussian, Inc.  All Rights Reserved.
  
 This is part of the Gaussian(R) 16 program.  It is based on
 the Gaussian(R) 09 system (copyright 2009, Gaussian, Inc.),
 the Gaussian(R) 03 system (copyright 2003, Gaussian, Inc.),
 the Gaussian(R) 98 system (copyright 1998, Gaussian, Inc.),
 the Gaussian(R) 94 system (copyright 1995, Gaussian, Inc.),
 the Gaussian 92(TM) system (copyright 1992, Gaussian, Inc.),
 the Gaussian 90(TM) system (copyright 1990, Gaussian, Inc.),
 the Gaussian 88(TM) system (copyright 1988, Gaussian, Inc.),
 the Gaussian 86(TM) system (copyright 1986, Carnegie Mellon
 University), and the Gaussian 82(TM) system (copyright 1983,
 Carnegie Mellon University). Gaussian is a federally registered
 trademark of Gaussian, Inc.
  
 This software contains proprietary and confidential information,
 including trade secrets, belonging to Gaussian, Inc.
  
 This software is provided under written license and may be
 used, copied, transmitted, or stored only in accord with that
 written license.
  
 The following legend is applicable only to US Government
 contracts under FAR:
  
                    RESTRICTED RIGHTS LEGEND
  
 Use, reproduction and disclosure by the US Government is
 subject to restrictions as set forth in subparagraphs (a)
 and (c) of the Commercial Computer Software - Restricted
 Rights clause in FAR 52.227-19.
  
 Gaussian, Inc.
 340 Quinnipiac St., Bldg. 40, Wallingford CT 06492
  
  
 ---------------------------------------------------------------
 Warning -- This program may not be used in any manner that
 competes with the business of Gaussian, Inc. or will provide
 assistance to any competitor of Gaussian, Inc.  The licensee
 of this program is prohibited from giving any competitor of
 Gaussian, Inc. access to this program.  By using this program,
 the user acknowledges that Gaussian, Inc. is engaged in the
 business of creating and licensing software in the field of
 computational chemistry and represents and warrants to the
 licensee that it is not a competitor of Gaussian, Inc. and that
 it will not use this program in any manner prohibited above.
 ---------------------------------------------------------------
  

 Cite this work as:
 Gaussian 16, Revision C.01,
 M. J. Frisch, G. W. Trucks, H. B. Schlegel, G. E. Scuseria, 
 M. A. Robb, J. R. Cheeseman, G. Scalmani, V. Barone, 
 G. A. Petersson, H. Nakatsuji, X. Li, M. Caricato, A. V. Marenich, 
 J. Bloino, B. G. Janesko, R. Gomperts, B. Mennucci, H. P. Hratchian, 
 J. V. Ortiz, A. F. Izmaylov, J. L. Sonnenberg, D. Williams-Young, 
 F. Ding, F. Lipparini, F. Egidi, J. Goings, B. Peng, A. Petrone, 
 T. Henderson, D. Ranasinghe, V. G. Zakrzewski, J. Gao, N. Rega, 
 G. Zheng, W. Liang, M. Hada, M. Ehara, K. Toyota, R. Fukuda, 
 J. Hasegawa, M. Ishida, T. Nakajima, Y. Honda, O. Kitao, H. Nakai, 
 T. Vreven, K. Throssell, J. A. Montgomery, Jr., J. E. Peralta, 
 F. Ogliaro, M. J. Bearpark, J. J. Heyd, E. N. Brothers, K. N. Kudin, 
 V. N. Staroverov, T. A. Keith, R. Kobayashi, J. Normand, 
 K. Raghavachari, A. P. Rendell, J. C. Burant, S. S. Iyengar, 
 J. Tomasi, M. Cossi, J. M. Millam, M. Klene, C. Adamo, R. Cammi, 
 J. W. Ochterski, R. L. Martin, K. Morokuma, O. Farkas, 
 J. B. Foresman, and D. J. Fox, Gaussian, Inc., Wallingford CT, 2019.
 
 ******************************************
 Gaussian 16:  ES64L-G16RevC.01  3-Jul-2019
                 4-Apr-2026 
 ******************************************
 %nprocshared=8
 Will use up to    8 processors via shared memory.
 %mem=18GB
 %chk=Molecule_TETCEN.chk
 -------------------
 #p opt B3LYP/3-21g*
 -------------------
 1/18=20,19=15,26=3,38=1/1,3;
 2/9=110,12=2,17=6,18=5,40=1/2;
 3/5=5,7=1,11=2,25=1,30=1,71=1,74=-5/1,2,3;
 4//1;
 5/5=2,38=5/2;
 6/7=2,8=2,9=2,10=2,28=1/1;
 7//1,2,3,16;
 1/18=20,19=15,26=3/3(2);
 2/9=110/2;
 99//99;
 2/9=110/2;
 3/5=5,7=1,11=2,25=1,30=1,71=1,74=-5/1,2,3;
 4/5=5,16=3,69=1/1;
 5/5=2,38=5/2;
 7//1,2,3,16;
 1/18=20,19=15,26=3/3(-5);
 2/9=110/2;
 6/7=2,8=2,9=2,10=2,19=2,28=1/1;
 99/9=1/99;
 Leave Link    1 at Sat Apr  4 20:31:30 2026, MaxMem=  2415919104 cpu:               2.4 elap:               0.3
 (Enter /opt/software/gaussian/g16_avx/g16/l101.exe)
 ------------------
 Molecule_TETCEN_8c
 ------------------
 Symbolic Z-matrix:
 Charge =  0 Multiplicity = 1
 C                    -1.1172   -0.6098    4.7694 
 C                    -0.4746    0.2717    3.9467 
 C                    -0.4185    0.0114    2.5012 
 C                     0.2133    0.8599    1.6675 
 C                     0.2988    0.6114    0.2587 
 C                     0.9076    1.448    -0.6327 
 C                    -0.9548   -1.1859    2.0071 
 C                    -1.6568   -2.082     2.8874 
 C                    -1.7168   -1.8267    4.2704 
 H                    -1.139    -0.3757    5.7626 
 H                    -0.062     1.1818    4.279 
 H                     0.6487    1.787     2.023 
 H                     1.3268    2.3805   -0.2697 
 H                    -1.9925   -2.9775    2.4767 
 H                    -2.1537   -2.5107    4.9043 
 C                    -0.2988   -0.6114   -0.2587 
 C                     0.9548    1.1859   -2.0071 
 C                    -0.9076   -1.448     0.6327 
 C                    -0.2133   -0.8599   -1.6675 
 C                     0.4185   -0.0114   -2.5012 
 C                     1.6568    2.082    -2.8874 
 H                    -1.3268   -2.3805    0.2697 
 H                    -0.6487   -1.787    -2.023 
 C                     0.4746   -0.2717   -3.9467 
 C                     1.7168    1.8267   -4.2704 
 H                     1.9925    2.9775   -2.4767 
 C                     1.1172    0.6098   -4.7694 
 H                     0.062    -1.1818   -4.279 
 H                     2.1537    2.5107   -4.9043 
 H                     1.139     0.3757   -5.7626 
 
 ITRead=  0  0  0  0  0  0  0  0  0  0  0  0  0  0  0  0  0  0  0  0
 ITRead=  0  0  0  0  0  0  0  0  0  0
 MicOpt= -1 -1 -1 -1 -1 -1 -1 -1 -1 -1 -1 -1 -1 -1 -1 -1 -1 -1 -1 -1
 MicOpt= -1 -1 -1 -1 -1 -1 -1 -1 -1 -1
 NAtoms=     30 NQM=       30 NQMF=       0 NMMI=      0 NMMIF=      0
                NMic=       0 NMicF=      0.
                    Isotopes and Nuclear Properties:
 (Nuclear quadrupole moments (NQMom) in fm**2, nuclear magnetic moments (NMagM)
  in nuclear magnetons)

  Atom         1           2           3           4           5           6           7           8           9          10
 IAtWgt=          12          12          12          12          12          12          12          12          12           1
 AtmWgt=  12.0000000  12.0000000  12.0000000  12.0000000  12.0000000  12.0000000  12.0000000  12.0000000  12.0000000   1.0078250
 NucSpn=           0           0           0           0           0           0           0           0           0           1
 AtZEff=  -0.0000000  -0.0000000  -0.0000000  -0.0000000  -0.0000000  -0.0000000  -0.0000000  -0.0000000  -0.0000000  -0.0000000
 NQMom=    0.0000000   0.0000000   0.0000000   0.0000000   0.0000000   0.0000000   0.0000000   0.0000000   0.0000000   0.0000000
 NMagM=    0.0000000   0.0000000   0.0000000   0.0000000   0.0000000   0.0000000   0.0000000   0.0000000   0.0000000   2.7928460
 AtZNuc=   6.0000000   6.0000000   6.0000000   6.0000000   6.0000000   6.0000000   6.0000000   6.0000000   6.0000000   1.0000000

  Atom        11          12          13          14          15          16          17          18          19          20
 IAtWgt=           1           1           1           1           1          12          12          12          12          12
 AtmWgt=   1.0078250   1.0078250   1.0078250   1.0078250   1.0078250  12.0000000  12.0000000  12.0000000  12.0000000  12.0000000
 NucSpn=           1           1           1           1           1           0           0           0           0           0
 AtZEff=  -0.0000000  -0.0000000  -0.0000000  -0.0000000  -0.0000000  -0.0000000  -0.0000000  -0.0000000  -0.0000000  -0.0000000
 NQMom=    0.0000000   0.0000000   0.0000000   0.0000000   0.0000000   0.0000000   0.0000000   0.0000000   0.0000000   0.0000000
 NMagM=    2.7928460   2.7928460   2.7928460   2.7928460   2.7928460   0.0000000   0.0000000   0.0000000   0.0000000   0.0000000
 AtZNuc=   1.0000000   1.0000000   1.0000000   1.0000000   1.0000000   6.0000000   6.0000000   6.0000000   6.0000000   6.0000000

  Atom        21          22          23          24          25          26          27          28          29          30
 IAtWgt=          12           1           1          12          12           1          12           1           1           1
 AtmWgt=  12.0000000   1.0078250   1.0078250  12.0000000  12.0000000   1.0078250  12.0000000   1.0078250   1.0078250   1.0078250
 NucSpn=           0           1           1           0           0           1           0           1           1           1
 AtZEff=  -0.0000000  -0.0000000  -0.0000000  -0.0000000  -0.0000000  -0.0000000  -0.0000000  -0.0000000  -0.0000000  -0.0000000
 NQMom=    0.0000000   0.0000000   0.0000000   0.0000000   0.0000000   0.0000000   0.0000000   0.0000000   0.0000000   0.0000000
 NMagM=    0.0000000   2.7928460   2.7928460   0.0000000   0.0000000   2.7928460   0.0000000   2.7928460   2.7928460   2.7928460
 AtZNuc=   6.0000000   1.0000000   1.0000000   6.0000000   6.0000000   1.0000000   6.0000000   1.0000000   1.0000000   1.0000000
 Leave Link  101 at Sat Apr  4 20:31:31 2026, MaxMem=  2415919104 cpu:               2.8 elap:               0.4
 (Enter /opt/software/gaussian/g16_avx/g16/l103.exe)

 GradGradGradGradGradGradGradGradGradGradGradGradGradGradGradGradGradGrad
 Berny optimization.
 Initialization pass.
                           ----------------------------
                           !    Initial Parameters    !
                           ! (Angstroms and Degrees)  !
 --------------------------                            --------------------------
 ! Name  Definition              Value          Derivative Info.                !
 --------------------------------------------------------------------------------
 ! R1    R(1,2)                  1.3663         estimate D2E/DX2                !
 ! R2    R(1,9)                  1.4455         estimate D2E/DX2                !
 ! R3    R(1,10)                 1.0206         estimate D2E/DX2                !
 ! R4    R(2,3)                  1.4698         estimate D2E/DX2                !
 ! R5    R(2,11)                 1.0531         estimate D2E/DX2                !
 ! R6    R(3,4)                  1.3469         estimate D2E/DX2                !
 ! R7    R(3,7)                  1.4019         estimate D2E/DX2                !
 ! R8    R(4,5)                  1.4331         estimate D2E/DX2                !
 ! R9    R(4,12)                 1.0842         estimate D2E/DX2                !
 ! R10   R(5,6)                  1.3657         estimate D2E/DX2                !
 ! R11   R(5,16)                 1.456          estimate D2E/DX2                !
 ! R12   R(6,13)                 1.0849         estimate D2E/DX2                !
 ! R13   R(6,17)                 1.4            estimate D2E/DX2                !
 ! R14   R(7,8)                  1.439          estimate D2E/DX2                !
 ! R15   R(7,18)                 1.4            estimate D2E/DX2                !
 ! R16   R(8,9)                  1.4076         estimate D2E/DX2                !
 ! R17   R(8,14)                 1.0408         estimate D2E/DX2                !
 ! R18   R(9,15)                 1.0298         estimate D2E/DX2                !
 ! R19   R(16,18)                1.3657         estimate D2E/DX2                !
 ! R20   R(16,19)                1.4331         estimate D2E/DX2                !
 ! R21   R(17,20)                1.4019         estimate D2E/DX2                !
 ! R22   R(17,21)                1.439          estimate D2E/DX2                !
 ! R23   R(18,22)                1.0849         estimate D2E/DX2                !
 ! R24   R(19,20)                1.3469         estimate D2E/DX2                !
 ! R25   R(19,23)                1.0842         estimate D2E/DX2                !
 ! R26   R(20,24)                1.4698         estimate D2E/DX2                !
 ! R27   R(21,25)                1.4076         estimate D2E/DX2                !
 ! R28   R(21,26)                1.0408         estimate D2E/DX2                !
 ! R29   R(24,27)                1.3663         estimate D2E/DX2                !
 ! R30   R(24,28)                1.0531         estimate D2E/DX2                !
 ! R31   R(25,27)                1.4455         estimate D2E/DX2                !
 ! R32   R(25,29)                1.0298         estimate D2E/DX2                !
 ! R33   R(27,30)                1.0206         estimate D2E/DX2                !
 ! A1    A(2,1,9)              122.031          estimate D2E/DX2                !
 ! A2    A(2,1,10)             116.6158         estimate D2E/DX2                !
 ! A3    A(9,1,10)             121.3436         estimate D2E/DX2                !
 ! A4    A(1,2,3)              119.7266         estimate D2E/DX2                !
 ! A5    A(1,2,11)             123.4938         estimate D2E/DX2                !
 ! A6    A(3,2,11)             116.6432         estimate D2E/DX2                !
 ! A7    A(2,3,4)              121.002          estimate D2E/DX2                !
 ! A8    A(2,3,7)              118.8994         estimate D2E/DX2                !
 ! A9    A(4,3,7)              119.9546         estimate D2E/DX2                !
 ! A10   A(3,4,5)              121.8181         estimate D2E/DX2                !
 ! A11   A(3,4,12)             121.6077         estimate D2E/DX2                !
 ! A12   A(5,4,12)             116.529          estimate D2E/DX2                !
 ! A13   A(4,5,6)              124.1951         estimate D2E/DX2                !
 ! A14   A(4,5,16)             118.064          estimate D2E/DX2                !
 ! A15   A(6,5,16)             117.7409         estimate D2E/DX2                !
 ! A16   A(5,6,13)             118.7099         estimate D2E/DX2                !
 ! A17   A(5,6,17)             122.7606         estimate D2E/DX2                !
 ! A18   A(13,6,17)            118.4483         estimate D2E/DX2                !
 ! A19   A(3,7,8)              120.1894         estimate D2E/DX2                !
 ! A20   A(3,7,18)             119.5391         estimate D2E/DX2                !
 ! A21   A(8,7,18)             120.0287         estimate D2E/DX2                !
 ! A22   A(7,8,9)              120.5896         estimate D2E/DX2                !
 ! A23   A(7,8,14)             116.8552         estimate D2E/DX2                !
 ! A24   A(9,8,14)             122.0044         estimate D2E/DX2                !
 ! A25   A(1,9,8)              118.306          estimate D2E/DX2                !
 ! A26   A(1,9,15)             121.5099         estimate D2E/DX2                !
 ! A27   A(8,9,15)             120.1575         estimate D2E/DX2                !
 ! A28   A(5,16,18)            117.7409         estimate D2E/DX2                !
 ! A29   A(5,16,19)            118.064          estimate D2E/DX2                !
 ! A30   A(18,16,19)           124.1951         estimate D2E/DX2                !
 ! A31   A(6,17,20)            119.5391         estimate D2E/DX2                !
 ! A32   A(6,17,21)            120.0287         estimate D2E/DX2                !
 ! A33   A(20,17,21)           120.1894         estimate D2E/DX2                !
 ! A34   A(7,18,16)            122.7606         estimate D2E/DX2                !
 ! A35   A(7,18,22)            118.4483         estimate D2E/DX2                !
 ! A36   A(16,18,22)           118.7099         estimate D2E/DX2                !
 ! A37   A(16,19,20)           121.8181         estimate D2E/DX2                !
 ! A38   A(16,19,23)           116.529          estimate D2E/DX2                !
 ! A39   A(20,19,23)           121.6077         estimate D2E/DX2                !
 ! A40   A(17,20,19)           119.9546         estimate D2E/DX2                !
 ! A41   A(17,20,24)           118.8994         estimate D2E/DX2                !
 ! A42   A(19,20,24)           121.002          estimate D2E/DX2                !
 ! A43   A(17,21,25)           120.5896         estimate D2E/DX2                !
 ! A44   A(17,21,26)           116.8552         estimate D2E/DX2                !
 ! A45   A(25,21,26)           122.0044         estimate D2E/DX2                !
 ! A46   A(20,24,27)           119.7266         estimate D2E/DX2                !
 ! A47   A(20,24,28)           116.6432         estimate D2E/DX2                !
 ! A48   A(27,24,28)           123.4938         estimate D2E/DX2                !
 ! A49   A(21,25,27)           118.306          estimate D2E/DX2                !
 ! A50   A(21,25,29)           120.1575         estimate D2E/DX2                !
 ! A51   A(27,25,29)           121.5099         estimate D2E/DX2                !
 ! A52   A(24,27,25)           122.031          estimate D2E/DX2                !
 ! A53   A(24,27,30)           116.6158         estimate D2E/DX2                !
 ! A54   A(25,27,30)           121.3436         estimate D2E/DX2                !
 ! D1    D(9,1,2,3)              1.9743         estimate D2E/DX2                !
 ! D2    D(9,1,2,11)           177.5834         estimate D2E/DX2                !
 ! D3    D(10,1,2,3)          -179.1414         estimate D2E/DX2                !
 ! D4    D(10,1,2,11)           -3.5323         estimate D2E/DX2                !
 ! D5    D(2,1,9,8)             -1.553          estimate D2E/DX2                !
 ! D6    D(2,1,9,15)           176.5753         estimate D2E/DX2                !
 ! D7    D(10,1,9,8)           179.615          estimate D2E/DX2                !
 ! D8    D(10,1,9,15)           -2.2567         estimate D2E/DX2                !
 ! D9    D(1,2,3,4)           -179.6963         estimate D2E/DX2                !
 ! D10   D(1,2,3,7)             -4.0616         estimate D2E/DX2                !
 ! D11   D(11,2,3,4)             4.3999         estimate D2E/DX2                !
 ! D12   D(11,2,3,7)          -179.9653         estimate D2E/DX2                !
 ! D13   D(2,3,4,5)            178.8909         estimate D2E/DX2                !
 ! D14   D(2,3,4,12)            -3.6385         estimate D2E/DX2                !
 ! D15   D(7,3,4,5)              3.3018         estimate D2E/DX2                !
 ! D16   D(7,3,4,12)          -179.2275         estimate D2E/DX2                !
 ! D17   D(2,3,7,8)              5.7072         estimate D2E/DX2                !
 ! D18   D(2,3,7,18)          -179.9508         estimate D2E/DX2                !
 ! D19   D(4,3,7,8)           -178.6113         estimate D2E/DX2                !
 ! D20   D(4,3,7,18)            -4.2692         estimate D2E/DX2                !
 ! D21   D(3,4,5,6)            178.8941         estimate D2E/DX2                !
 ! D22   D(3,4,5,16)            -1.2045         estimate D2E/DX2                !
 ! D23   D(12,4,5,6)             1.3017         estimate D2E/DX2                !
 ! D24   D(12,4,5,16)         -178.7969         estimate D2E/DX2                !
 ! D25   D(4,5,6,13)            -2.2659         estimate D2E/DX2                !
 ! D26   D(4,5,6,17)          -178.9378         estimate D2E/DX2                !
 ! D27   D(16,5,6,13)          177.8324         estimate D2E/DX2                !
 ! D28   D(16,5,6,17)            1.1605         estimate D2E/DX2                !
 ! D29   D(4,5,16,18)            0.0921         estimate D2E/DX2                !
 ! D30   D(4,5,16,19)          180.0            estimate D2E/DX2                !
 ! D31   D(6,5,16,18)          180.0            estimate D2E/DX2                !
 ! D32   D(6,5,16,19)           -0.0921         estimate D2E/DX2                !
 ! D33   D(5,6,17,20)           -3.2492         estimate D2E/DX2                !
 ! D34   D(5,6,17,21)         -177.6004         estimate D2E/DX2                !
 ! D35   D(13,6,17,20)        -179.9293         estimate D2E/DX2                !
 ! D36   D(13,6,17,21)           5.7194         estimate D2E/DX2                !
 ! D37   D(3,7,8,9)             -5.4013         estimate D2E/DX2                !
 ! D38   D(3,7,8,14)          -177.058          estimate D2E/DX2                !
 ! D39   D(18,7,8,9)          -179.7155         estimate D2E/DX2                !
 ! D40   D(18,7,8,14)            8.6278         estimate D2E/DX2                !
 ! D41   D(3,7,18,16)            3.2492         estimate D2E/DX2                !
 ! D42   D(3,7,18,22)          179.9293         estimate D2E/DX2                !
 ! D43   D(8,7,18,16)          177.6004         estimate D2E/DX2                !
 ! D44   D(8,7,18,22)           -5.7194         estimate D2E/DX2                !
 ! D45   D(7,8,9,1)              3.1792         estimate D2E/DX2                !
 ! D46   D(7,8,9,15)          -174.9753         estimate D2E/DX2                !
 ! D47   D(14,8,9,1)           174.3983         estimate D2E/DX2                !
 ! D48   D(14,8,9,15)           -3.7562         estimate D2E/DX2                !
 ! D49   D(5,16,18,7)           -1.1605         estimate D2E/DX2                !
 ! D50   D(5,16,18,22)        -177.8324         estimate D2E/DX2                !
 ! D51   D(19,16,18,7)         178.9378         estimate D2E/DX2                !
 ! D52   D(19,16,18,22)          2.2659         estimate D2E/DX2                !
 ! D53   D(5,16,19,20)           1.2045         estimate D2E/DX2                !
 ! D54   D(5,16,19,23)         178.7969         estimate D2E/DX2                !
 ! D55   D(18,16,19,20)       -178.8941         estimate D2E/DX2                !
 ! D56   D(18,16,19,23)         -1.3017         estimate D2E/DX2                !
 ! D57   D(6,17,20,19)           4.2692         estimate D2E/DX2                !
 ! D58   D(6,17,20,24)         179.9508         estimate D2E/DX2                !
 ! D59   D(21,17,20,19)        178.6113         estimate D2E/DX2                !
 ! D60   D(21,17,20,24)         -5.7072         estimate D2E/DX2                !
 ! D61   D(6,17,21,25)         179.7155         estimate D2E/DX2                !
 ! D62   D(6,17,21,26)          -8.6278         estimate D2E/DX2                !
 ! D63   D(20,17,21,25)          5.4013         estimate D2E/DX2                !
 ! D64   D(20,17,21,26)        177.058          estimate D2E/DX2                !
 ! D65   D(16,19,20,17)         -3.3018         estimate D2E/DX2                !
 ! D66   D(16,19,20,24)       -178.8909         estimate D2E/DX2                !
 ! D67   D(23,19,20,17)        179.2275         estimate D2E/DX2                !
 ! D68   D(23,19,20,24)          3.6385         estimate D2E/DX2                !
 ! D69   D(17,20,24,27)          4.0616         estimate D2E/DX2                !
 ! D70   D(17,20,24,28)        179.9653         estimate D2E/DX2                !
 ! D71   D(19,20,24,27)        179.6963         estimate D2E/DX2                !
 ! D72   D(19,20,24,28)         -4.3999         estimate D2E/DX2                !
 ! D73   D(17,21,25,27)         -3.1792         estimate D2E/DX2                !
 ! D74   D(17,21,25,29)        174.9753         estimate D2E/DX2                !
 ! D75   D(26,21,25,27)       -174.3983         estimate D2E/DX2                !
 ! D76   D(26,21,25,29)          3.7562         estimate D2E/DX2                !
 ! D77   D(20,24,27,25)         -1.9743         estimate D2E/DX2                !
 ! D78   D(20,24,27,30)        179.1414         estimate D2E/DX2                !
 ! D79   D(28,24,27,25)       -177.5834         estimate D2E/DX2                !
 ! D80   D(28,24,27,30)          3.5323         estimate D2E/DX2                !
 ! D81   D(21,25,27,24)          1.553          estimate D2E/DX2                !
 ! D82   D(21,25,27,30)       -179.615          estimate D2E/DX2                !
 ! D83   D(29,25,27,24)       -176.5753         estimate D2E/DX2                !
 ! D84   D(29,25,27,30)          2.2567         estimate D2E/DX2                !
 --------------------------------------------------------------------------------
 Trust Radius=3.00D-01 FncErr=1.00D-07 GrdErr=1.00D-06 EigMax=2.50D+02 EigMin=1.00D-04
 Number of steps in this run=    180 maximum allowed number of steps=    180.
 GradGradGradGradGradGradGradGradGradGradGradGradGradGradGradGradGradGrad

 Leave Link  103 at Sat Apr  4 20:31:31 2026, MaxMem=  2415919104 cpu:               0.1 elap:               0.0
 (Enter /opt/software/gaussian/g16_avx/g16/l202.exe)
                          Input orientation:                          
 ---------------------------------------------------------------------
 Center     Atomic      Atomic             Coordinates (Angstroms)
 Number     Number       Type             X           Y           Z
 ---------------------------------------------------------------------
      1          6           0       -1.117200   -0.609800    4.769400
      2          6           0       -0.474600    0.271700    3.946700
      3          6           0       -0.418500    0.011400    2.501200
      4          6           0        0.213300    0.859900    1.667500
      5          6           0        0.298800    0.611400    0.258700
      6          6           0        0.907600    1.448000   -0.632700
      7          6           0       -0.954800   -1.185900    2.007100
      8          6           0       -1.656800   -2.082000    2.887400
      9          6           0       -1.716800   -1.826700    4.270400
     10          1           0       -1.139000   -0.375700    5.762600
     11          1           0       -0.062000    1.181800    4.279000
     12          1           0        0.648700    1.787000    2.023000
     13          1           0        1.326800    2.380500   -0.269700
     14          1           0       -1.992500   -2.977500    2.476700
     15          1           0       -2.153700   -2.510700    4.904300
     16          6           0       -0.298800   -0.611400   -0.258700
     17          6           0        0.954800    1.185900   -2.007100
     18          6           0       -0.907600   -1.448000    0.632700
     19          6           0       -0.213300   -0.859900   -1.667500
     20          6           0        0.418500   -0.011400   -2.501200
     21          6           0        1.656800    2.082000   -2.887400
     22          1           0       -1.326800   -2.380500    0.269700
     23          1           0       -0.648700   -1.787000   -2.023000
     24          6           0        0.474600   -0.271700   -3.946700
     25          6           0        1.716800    1.826700   -4.270400
     26          1           0        1.992500    2.977500   -2.476700
     27          6           0        1.117200    0.609800   -4.769400
     28          1           0        0.062000   -1.181800   -4.279000
     29          1           0        2.153700    2.510700   -4.904300
     30          1           0        1.139000    0.375700   -5.762600
 ---------------------------------------------------------------------
                    Distance matrix (angstroms):
                    1          2          3          4          5
     1  C    0.000000
     2  C    1.366313   0.000000
     3  C    2.453325   1.469821   0.000000
     4  C    3.681308   2.452333   1.346915   0.000000
     5  C    4.882909   3.783502   2.429676   1.433102   0.000000
     6  C    6.125116   4.925958   3.693737   2.473628   1.365698
     7  C    2.826405   2.473305   1.401884   2.380144   2.803338
     8  C    2.449585   2.838946   2.462694   3.693265   4.241325
     9  C    1.445464   2.459903   2.862562   4.209299   5.108886
    10  H    1.020649   2.039129   3.362394   4.486119   5.773608
    11  H    2.136298   1.053064   2.158124   2.645627   4.076560
    12  H    4.050403   2.694171   2.126111   1.084190   2.148772
    13  H    6.348823   5.046792   4.041855   2.702749   2.113222
    14  H    3.410077   3.875851   3.378106   4.499555   4.801019
    15  H    2.169320   3.387938   3.891889   5.238369   6.110963
    16  C    5.094268   4.300716   2.831829   2.477341   1.456045
    17  C    7.310176   6.190855   4.856971   3.762816   2.427805
    18  C    4.225967   3.758650   2.420818   2.766520   2.415865
    19  C    6.504865   5.733065   4.263723   3.776496   2.477341
    20  C    7.455071   6.515611   5.071991   4.263723   2.831829
    21  C    8.577147   7.384103   6.134433   4.931971   3.728911
    22  H    4.840104   4.613105   3.394965   3.850447   3.405020
    23  H    6.909558   6.317110   4.873974   4.622652   3.443288
    24  C    8.866710   7.968816   6.515611   5.733065   4.300716
    25  C    9.781926   8.645287   7.328669   6.201119   4.899023
    26  H    8.662847   7.393781   6.276158   4.982387   3.993678
    27  C    9.872622   8.866710   7.455071   6.504865   5.094268
    28  H    9.142824   8.370349   6.901139   6.289061   4.884912
    29  H   10.677864   9.500594   8.228253   7.048322   5.805563
    30  H   10.815945   9.843019   8.417180   7.503183   6.084204
                    6          7          8          9         10
     6  C    0.000000
     7  C    4.168274   0.000000
     8  C    5.606082   1.439002   0.000000
     9  C    6.453799   2.472609   1.407646   0.000000
    10  H    6.958040   3.846314   3.383246   2.160073   0.000000
    11  H    5.013560   3.400680   3.890029   3.433585   2.405578
    12  H    2.689738   3.377810   4.586031   4.868801   4.675227
    13  H    1.084921   4.807154   6.227604   6.897575   7.075694
    14  H    6.137100   2.123011   1.040812   2.148886   4.277261
    15  H    7.463326   3.403854   2.120985   1.029838   2.514860
    16  C    2.415865   2.427805   3.728911   4.899023   6.084204
    17  C    1.399964   5.038433   6.438614   7.457896   8.197001
    18  C    3.644586   1.399964   2.459050   3.745808   5.245879
    19  C    2.766520   3.762816   4.931971   6.201119   7.503183
    20  C    2.420818   4.856971   6.134433   7.328669   8.417180
    21  C    2.459050   6.438614   7.852844   8.825713   9.416968
    22  H    4.523746   2.141031   2.655251   4.057634   5.850337
    23  H    3.849705   4.086163   5.021486   6.383518   7.927656
    24  C    3.758650   6.190855   7.384103   8.645287   9.843019
    25  C    3.745808   7.457896   8.825713   9.903646  10.661484
    26  H    2.629965   6.791534   8.227363   9.075384   9.430605
    27  C    4.225967   7.310176   8.577147   9.781926  10.815945
    28  H    4.574537   6.367806   7.424414   8.756270  10.145242
    29  H    4.574786   8.431789   9.814448  10.861350  11.530652
    30  H    5.245879   8.197001   9.416968  10.661484  11.772176
                   11         12         13         14         15
    11  H    0.000000
    12  H    2.441495   0.000000
    13  H    4.904724   2.463440   0.000000
    14  H    4.926956   5.466465   6.875219   0.000000
    15  H    4.289611   5.884349   7.925149   2.477323   0.000000
    16  C    4.884912   3.443288   3.405020   3.993678   5.805563
    17  C    6.367806   4.086163   2.141031   6.791534   8.431789
    18  C    4.574537   3.849705   4.523746   2.629965   4.574786
    19  C    6.289061   4.622652   3.850447   4.982387   7.048322
    20  C    6.901139   4.873974   3.394965   6.276158   8.228253
    21  C    7.424414   5.021486   2.655251   8.227363   9.814448
    22  H    5.510371   4.934037   5.477195   2.381263   4.709589
    23  H    6.990937   5.552192   4.934037   4.844625   7.125746
    24  C    8.370349   6.317110   4.613105   7.393781   9.500594
    25  C    8.756270   6.383518   4.057634   9.075384  10.861350
    26  H    7.285945   4.844625   2.381263   8.710822  10.089127
    27  C    9.142824   6.909558   4.840104   8.662847  10.677864
    28  H    8.879265   6.990937   5.510371   7.285945   9.539827
    29  H    9.539827   7.125746   4.709589  10.089127  11.831179
    30  H   10.145242   7.927656   5.850337   9.430605  11.530652
                   16         17         18         19         20
    16  C    0.000000
    17  C    2.803338   0.000000
    18  C    1.365698   4.168274   0.000000
    19  C    1.433102   2.380144   2.473628   0.000000
    20  C    2.429676   1.401884   3.693737   1.346915   0.000000
    21  C    4.241325   1.439002   5.606082   3.693265   2.462694
    22  H    2.113222   4.807154   1.084921   2.702749   4.041855
    23  H    2.148772   3.377810   2.689738   1.084190   2.126111
    24  C    3.783502   2.473305   4.925958   2.452333   1.469821
    25  C    5.108886   2.472609   6.453799   4.209299   2.862562
    26  H    4.801019   2.123011   6.137100   4.499555   3.378106
    27  C    4.882909   2.826405   6.125116   3.681308   2.453325
    28  H    4.076560   3.400680   5.013560   2.645627   2.158124
    29  H    6.110963   3.403854   7.463326   5.238369   3.891889
    30  H    5.773608   3.846314   6.958040   4.486119   3.362394
                   21         22         23         24         25
    21  C    0.000000
    22  H    6.227604   0.000000
    23  H    4.586031   2.463440   0.000000
    24  C    2.838946   5.046792   2.694171   0.000000
    25  C    1.407646   6.897575   4.868801   2.459903   0.000000
    26  H    1.040812   6.875219   5.466465   3.875851   2.148886
    27  C    2.449585   6.348823   4.050403   1.366313   1.445464
    28  H    3.890029   4.904724   2.441495   1.053064   3.433585
    29  H    2.120985   7.925149   5.884349   3.387938   1.029838
    30  H    3.383246   7.075694   4.675227   2.039129   2.160073
                   26         27         28         29         30
    26  H    0.000000
    27  C    3.410077   0.000000
    28  H    4.926956   2.136298   0.000000
    29  H    2.477323   2.169320   4.289611   0.000000
    30  H    4.277261   1.020649   2.405578   2.514860   0.000000
 Stoichiometry    C18H12
 Framework group  CI[X(C18H12)]
 Deg. of freedom    42
 Full point group                 CI      NOp   2
 Largest Abelian subgroup         CI      NOp   2
 Largest concise Abelian subgroup CI      NOp   2
                         Standard orientation:                         
 ---------------------------------------------------------------------
 Center     Atomic      Atomic             Coordinates (Angstroms)
 Number     Number       Type             X           Y           Z
 ---------------------------------------------------------------------
      1          6           0       -1.117200   -0.609800    4.769400
      2          6           0       -0.474600    0.271700    3.946700
      3          6           0       -0.418500    0.011400    2.501200
      4          6           0        0.213300    0.859900    1.667500
      5          6           0        0.298800    0.611400    0.258700
      6          6           0        0.907600    1.448000   -0.632700
      7          6           0       -0.954800   -1.185900    2.007100
      8          6           0       -1.656800   -2.082000    2.887400
      9          6           0       -1.716800   -1.826700    4.270400
     10          1           0       -1.139000   -0.375700    5.762600
     11          1           0       -0.062000    1.181800    4.279000
     12          1           0        0.648700    1.787000    2.023000
     13          1           0        1.326800    2.380500   -0.269700
     14          1           0       -1.992500   -2.977500    2.476700
     15          1           0       -2.153700   -2.510700    4.904300
     16          6           0       -0.298800   -0.611400   -0.258700
     17          6           0        0.954800    1.185900   -2.007100
     18          6           0       -0.907600   -1.448000    0.632700
     19          6           0       -0.213300   -0.859900   -1.667500
     20          6           0        0.418500   -0.011400   -2.501200
     21          6           0        1.656800    2.082000   -2.887400
     22          1           0       -1.326800   -2.380500    0.269700
     23          1           0       -0.648700   -1.787000   -2.023000
     24          6           0        0.474600   -0.271700   -3.946700
     25          6           0        1.716800    1.826700   -4.270400
     26          1           0        1.992500    2.977500   -2.476700
     27          6           0        1.117200    0.609800   -4.769400
     28          1           0        0.062000   -1.181800   -4.279000
     29          1           0        2.153700    2.510700   -4.904300
     30          1           0        1.139000    0.375700   -5.762600
 ---------------------------------------------------------------------
 Rotational constants (GHZ):           1.6556663           0.2148010           0.1901419
 Leave Link  202 at Sat Apr  4 20:31:31 2026, MaxMem=  2415919104 cpu:               0.1 elap:               0.0
 (Enter /opt/software/gaussian/g16_avx/g16/l301.exe)
 Standard basis: 3-21G* (6D, 7F)
 Ernie: Thresh=  0.10000D-02 Tol=  0.10000D-05 Strict=F.
 There are    93 symmetry adapted cartesian basis functions of AG  symmetry.
 There are    93 symmetry adapted cartesian basis functions of AU  symmetry.
 There are    93 symmetry adapted basis functions of AG  symmetry.
 There are    93 symmetry adapted basis functions of AU  symmetry.
   186 basis functions,   306 primitive gaussians,   186 cartesian basis functions
    60 alpha electrons       60 beta electrons
       nuclear repulsion energy      1118.6090067343 Hartrees.
 IExCor=  402 DFT=T Ex+Corr=B3LYP ExCW=0 ScaHFX=  0.200000
 ScaDFX=  0.800000  0.720000  1.000000  0.810000 ScalE2=  1.000000  1.000000
 IRadAn=      5 IRanWt=     -1 IRanGd=            0 ICorTp=0 IEmpDi=  4
 NAtoms=   30 NActive=   30 NUniq=   15 SFac= 4.00D+00 NAtFMM=   60 NAOKFM=F Big=F
 Integral buffers will be    131072 words long.
 Raffenetti 2 integral format.
 Two-electron integral symmetry is turned on.
 Leave Link  301 at Sat Apr  4 20:31:31 2026, MaxMem=  2415919104 cpu:               0.4 elap:               0.1
 (Enter /opt/software/gaussian/g16_avx/g16/l302.exe)
 NPDir=0 NMtPBC=     1 NCelOv=     1 NCel=       1 NClECP=     1 NCelD=      1
         NCelK=      1 NCelE2=     1 NClLst=     1 CellRange=     0.0.
 One-electron integrals computed using PRISM.
 One-electron integral symmetry used in STVInt
 NBasis=   186 RedAO= T EigKep=  7.26D-04  NBF=    93    93
 NBsUse=   186 1.00D-06 EigRej= -1.00D+00 NBFU=    93    93
 Precomputing XC quadrature grid using
 IXCGrd= 4 IRadAn=           5 IRanWt=          -1 IRanGd=           0 AccXCQ= 0.00D+00.
 Generated NRdTot=       0 NPtTot=           0 NUsed=           0 NTot=          32
 NSgBfM=   182   182   182   182   182 MxSgAt=    30 MxSgA2=    30.
 Leave Link  302 at Sat Apr  4 20:31:32 2026, MaxMem=  2415919104 cpu:               2.2 elap:               0.3
 (Enter /opt/software/gaussian/g16_avx/g16/l303.exe)
 DipDrv:  MaxL=1.
 Leave Link  303 at Sat Apr  4 20:31:32 2026, MaxMem=  2415919104 cpu:               0.2 elap:               0.0
 (Enter /opt/software/gaussian/g16_avx/g16/l401.exe)
 ExpMin= 1.83D-01 ExpMax= 1.72D+02 ExpMxC= 1.72D+02 IAcc=3 IRadAn=         5 AccDes= 0.00D+00
 Harris functional with IExCor=  402 and IRadAn=       5 diagonalized for initial guess.
 HarFok:  IExCor=  402 AccDes= 0.00D+00 IRadAn=         5 IDoV= 1 UseB2=F ITyADJ=14
 ICtDFT=  3500011 ScaDFX=  1.000000  1.000000  1.000000  1.000000
 FoFCou: FMM=F IPFlag=           0 FMFlag=      100000 FMFlg1=           0
         NFxFlg=           0 DoJE=T BraDBF=F KetDBF=T FulRan=T
         wScrn=  0.000000 ICntrl=       500 IOpCl=  0 I1Cent=   200000004 NGrid=           0
         NMat0=    1 NMatS0=      1 NMatT0=    0 NMatD0=    1 NMtDS0=    0 NMtDT0=    0
 Petite list used in FoFCou.
 Harris En= -689.222892235618    
 JPrj=0 DoOrth=F DoCkMO=F.
 Initial guess orbital symmetries:
       Occupied  (AU) (AG) (AU) (AG) (AU) (AG) (AU) (AG) (AG) (AU)
                 (AU) (AG) (AU) (AG) (AU) (AG) (AU) (AG) (AG) (AU)
                 (AG) (AU) (AU) (AG) (AG) (AU) (AG) (AU) (AU) (AG)
                 (AU) (AG) (AG) (AG) (AU) (AU) (AU) (AG) (AG) (AG)
                 (AU) (AG) (AU) (AU) (AG) (AU) (AU) (AU) (AG) (AG)
                 (AG) (AU) (AU) (AG) (AG) (AG) (AU) (AU) (AG) (AU)
       Virtual   (AG) (AU) (AG) (AG) (AU) (AU) (AG) (AU) (AG) (AU)
                 (AU) (AG) (AG) (AU) (AG) (AU) (AU) (AG) (AU) (AG)
                 (AU) (AG) (AU) (AG) (AG) (AU) (AG) (AU) (AU) (AG)
                 (AG) (AU) (AG) (AU) (AU) (AG) (AG) (AU) (AU) (AU)
                 (AG) (AG) (AG) (AU) (AU) (AU) (AG) (AG) (AU) (AU)
                 (AG) (AU) (AG) (AG) (AG) (AU) (AG) (AU) (AG) (AU)
                 (AU) (AG) (AU) (AU) (AG) (AG) (AU) (AG) (AU) (AG)
                 (AG) (AU) (AU) (AG) (AG) (AU) (AU) (AG) (AU) (AU)
                 (AG) (AG) (AU) (AU) (AG) (AG) (AG) (AU) (AU) (AG)
                 (AG) (AU) (AU) (AG) (AU) (AG) (AG) (AU) (AG) (AU)
                 (AU) (AU) (AG) (AG) (AU) (AG) (AU) (AG) (AU) (AG)
                 (AG) (AU) (AG) (AU) (AG) (AU) (AG) (AU) (AG) (AU)
                 (AU) (AG) (AG) (AU) (AG) (AU)
 The electronic state of the initial guess is 1-AG.
 Leave Link  401 at Sat Apr  4 20:31:32 2026, MaxMem=  2415919104 cpu:               6.1 elap:               0.8
 (Enter /opt/software/gaussian/g16_avx/g16/l502.exe)
 Keep R1 ints in memory in symmetry-blocked form, NReq=226893669.
 FoFCou: FMM=F IPFlag=           0 FMFlag=           0 FMFlg1=           0
         NFxFlg=           0 DoJE=F BraDBF=F KetDBF=F FulRan=T
         wScrn=  0.000000 ICntrl=       600 IOpCl=  0 I1Cent=           0 NGrid=           0
         NMat0=    1 NMatS0=  17391 NMatT0=    0 NMatD0=    1 NMtDS0=    0 NMtDT0=    0
 Petite list used in FoFCou.
 Closed shell SCF:
 Using DIIS extrapolation, IDIIS=  1040.
 NGot=  2415919104 LenX=  2340186202 LenY=  2340151165
 Requested convergence on RMS density matrix=1.00D-08 within 128 cycles.
 Requested convergence on MAX density matrix=1.00D-06.
 Requested convergence on             energy=1.00D-06.
 No special actions if energy rises.
 Integral accuracy reduced to 1.0D-05 until final iterations.

 Cycle   1  Pass 0  IDiag  1:
 E= -689.072333571479    
 DIIS: error= 4.36D-02 at cycle   1 NSaved=   1.
 NSaved= 1 IEnMin= 1 EnMin= -689.072333571479     IErMin= 1 ErrMin= 4.36D-02
 ErrMax= 4.36D-02  0.00D+00 EMaxC= 1.00D-01 BMatC= 2.20D-01 BMatP= 2.20D-01
 IDIUse=3 WtCom= 5.64D-01 WtEn= 4.36D-01
 Coeff-Com:  0.100D+01
 Coeff-En:   0.100D+01
 Coeff:      0.100D+01
 Gap=     0.104 Goal=   None    Shift=    0.000
 GapD=    0.104 DampG=1.000 DampE=0.500 DampFc=0.5000 IDamp=-1.
 Damping current iteration by 5.00D-01
 RMSDP=5.17D-03 MaxDP=7.78D-02              OVMax= 1.09D-01

 Cycle   2  Pass 0  IDiag  1:
 E= -689.199971647666     Delta-E=       -0.127638076187 Rises=F Damp=T
 DIIS: error= 8.49D-03 at cycle   2 NSaved=   2.
 NSaved= 2 IEnMin= 2 EnMin= -689.199971647666     IErMin= 2 ErrMin= 8.49D-03
 ErrMax= 8.49D-03  0.00D+00 EMaxC= 1.00D-01 BMatC= 1.18D-02 BMatP= 2.20D-01
 IDIUse=3 WtCom= 9.15D-01 WtEn= 8.49D-02
 Coeff-Com: -0.163D+00 0.116D+01
 Coeff-En:   0.000D+00 0.100D+01
 Coeff:     -0.149D+00 0.115D+01
 Gap=     0.104 Goal=   None    Shift=    0.000
 RMSDP=1.30D-03 MaxDP=1.60D-02 DE=-1.28D-01 OVMax= 5.51D-02

 Cycle   3  Pass 0  IDiag  1:
 E= -689.310726797325     Delta-E=       -0.110755149659 Rises=F Damp=F
 DIIS: error= 2.81D-03 at cycle   3 NSaved=   3.
 NSaved= 3 IEnMin= 3 EnMin= -689.310726797325     IErMin= 3 ErrMin= 2.81D-03
 ErrMax= 2.81D-03  0.00D+00 EMaxC= 1.00D-01 BMatC= 1.38D-03 BMatP= 1.18D-02
 IDIUse=3 WtCom= 9.72D-01 WtEn= 2.81D-02
 Coeff-Com: -0.654D-01 0.298D+00 0.767D+00
 Coeff-En:   0.000D+00 0.000D+00 0.100D+01
 Coeff:     -0.636D-01 0.290D+00 0.774D+00
 Gap=     0.104 Goal=   None    Shift=    0.000
 RMSDP=5.27D-04 MaxDP=1.48D-02 DE=-1.11D-01 OVMax= 2.32D-02

 Cycle   4  Pass 0  IDiag  1:
 E= -689.310860466080     Delta-E=       -0.000133668756 Rises=F Damp=F
 DIIS: error= 3.88D-03 at cycle   4 NSaved=   4.
 NSaved= 4 IEnMin= 4 EnMin= -689.310860466080     IErMin= 3 ErrMin= 2.81D-03
 ErrMax= 3.88D-03  0.00D+00 EMaxC= 1.00D-01 BMatC= 1.21D-03 BMatP= 1.38D-03
 IDIUse=3 WtCom= 9.61D-01 WtEn= 3.88D-02
 Coeff-Com: -0.296D-01 0.111D+00 0.504D+00 0.414D+00
 Coeff-En:   0.000D+00 0.000D+00 0.480D+00 0.520D+00
 Coeff:     -0.285D-01 0.107D+00 0.503D+00 0.418D+00
 Gap=     0.104 Goal=   None    Shift=    0.000
 RMSDP=2.66D-04 MaxDP=4.55D-03 DE=-1.34D-04 OVMax= 1.50D-02

 Cycle   5  Pass 0  IDiag  1:
 E= -689.312290042884     Delta-E=       -0.001429576803 Rises=F Damp=F
 DIIS: error= 6.25D-04 at cycle   5 NSaved=   5.
 NSaved= 5 IEnMin= 5 EnMin= -689.312290042884     IErMin= 5 ErrMin= 6.25D-04
 ErrMax= 6.25D-04  0.00D+00 EMaxC= 1.00D-01 BMatC= 3.24D-05 BMatP= 1.21D-03
 IDIUse=3 WtCom= 9.94D-01 WtEn= 6.25D-03
 Coeff-Com: -0.446D-02 0.151D-01 0.131D+00 0.187D+00 0.671D+00
 Coeff-En:   0.000D+00 0.000D+00 0.000D+00 0.000D+00 0.100D+01
 Coeff:     -0.443D-02 0.150D-01 0.130D+00 0.186D+00 0.673D+00
 Gap=     0.104 Goal=   None    Shift=    0.000
 RMSDP=5.88D-05 MaxDP=1.05D-03 DE=-1.43D-03 OVMax= 2.67D-03

 Cycle   6  Pass 0  IDiag  1:
 E= -689.312325472224     Delta-E=       -0.000035429341 Rises=F Damp=F
 DIIS: error= 1.90D-04 at cycle   6 NSaved=   6.
 NSaved= 6 IEnMin= 6 EnMin= -689.312325472224     IErMin= 6 ErrMin= 1.90D-04
 ErrMax= 1.90D-04  0.00D+00 EMaxC= 1.00D-01 BMatC= 6.70D-06 BMatP= 3.24D-05
 IDIUse=3 WtCom= 9.98D-01 WtEn= 1.90D-03
 Coeff-Com: -0.506D-04-0.740D-03 0.374D-01 0.782D-01 0.405D+00 0.480D+00
 Coeff-En:   0.000D+00 0.000D+00 0.000D+00 0.000D+00 0.106D+00 0.894D+00
 Coeff:     -0.505D-04-0.738D-03 0.374D-01 0.781D-01 0.404D+00 0.481D+00
 Gap=     0.104 Goal=   None    Shift=    0.000
 RMSDP=1.58D-05 MaxDP=4.79D-04 DE=-3.54D-05 OVMax= 7.91D-04

 Cycle   7  Pass 0  IDiag  1:
 E= -689.312332458830     Delta-E=       -0.000006986606 Rises=F Damp=F
 DIIS: error= 3.25D-05 at cycle   7 NSaved=   7.
 NSaved= 7 IEnMin= 7 EnMin= -689.312332458830     IErMin= 7 ErrMin= 3.25D-05
 ErrMax= 3.25D-05  0.00D+00 EMaxC= 1.00D-01 BMatC= 1.09D-07 BMatP= 6.70D-06
 IDIUse=1 WtCom= 1.00D+00 WtEn= 0.00D+00
 Coeff-Com:  0.464D-04-0.659D-03 0.191D-01 0.411D-01 0.219D+00 0.272D+00
 Coeff-Com:  0.450D+00
 Coeff:      0.464D-04-0.659D-03 0.191D-01 0.411D-01 0.219D+00 0.272D+00
 Coeff:      0.450D+00
 Gap=     0.104 Goal=   None    Shift=    0.000
 RMSDP=3.18D-06 MaxDP=6.42D-05 DE=-6.99D-06 OVMax= 1.87D-04

 Initial convergence to 1.0D-05 achieved.  Increase integral accuracy.
 Cycle   8  Pass 1  IDiag  1:
 E= -689.312326567649     Delta-E=        0.000005891181 Rises=F Damp=F
 DIIS: error= 1.17D-05 at cycle   1 NSaved=   1.
 NSaved= 1 IEnMin= 1 EnMin= -689.312326567649     IErMin= 1 ErrMin= 1.17D-05
 ErrMax= 1.17D-05  0.00D+00 EMaxC= 1.00D-01 BMatC= 1.54D-08 BMatP= 1.54D-08
 IDIUse=1 WtCom= 1.00D+00 WtEn= 0.00D+00
 Coeff-Com:  0.100D+01
 Coeff:      0.100D+01
 Gap=     0.104 Goal=   None    Shift=    0.000
 RMSDP=3.18D-06 MaxDP=6.42D-05 DE= 5.89D-06 OVMax= 1.47D-04

 Cycle   9  Pass 1  IDiag  1:
 E= -689.312326541633     Delta-E=        0.000000026017 Rises=F Damp=F
 DIIS: error= 2.22D-05 at cycle   2 NSaved=   2.
 NSaved= 2 IEnMin= 1 EnMin= -689.312326567649     IErMin= 1 ErrMin= 1.17D-05
 ErrMax= 2.22D-05  0.00D+00 EMaxC= 1.00D-01 BMatC= 3.98D-08 BMatP= 1.54D-08
 IDIUse=1 WtCom= 1.00D+00 WtEn= 0.00D+00
 Coeff-Com:  0.629D+00 0.371D+00
 Coeff:      0.629D+00 0.371D+00
 Gap=     0.104 Goal=   None    Shift=    0.000
 RMSDP=1.63D-06 MaxDP=2.40D-05 DE= 2.60D-08 OVMax= 1.04D-04

 Cycle  10  Pass 1  IDiag  1:
 E= -689.312326588257     Delta-E=       -0.000000046625 Rises=F Damp=F
 DIIS: error= 3.39D-06 at cycle   3 NSaved=   3.
 NSaved= 3 IEnMin= 3 EnMin= -689.312326588257     IErMin= 3 ErrMin= 3.39D-06
 ErrMax= 3.39D-06  0.00D+00 EMaxC= 1.00D-01 BMatC= 7.92D-10 BMatP= 1.54D-08
 IDIUse=1 WtCom= 1.00D+00 WtEn= 0.00D+00
 Coeff-Com:  0.325D-01 0.123D+00 0.844D+00
 Coeff:      0.325D-01 0.123D+00 0.844D+00
 Gap=     0.104 Goal=   None    Shift=    0.000
 RMSDP=2.50D-07 MaxDP=4.61D-06 DE=-4.66D-08 OVMax= 1.87D-05

 Cycle  11  Pass 1  IDiag  1:
 E= -689.312326588943     Delta-E=       -0.000000000686 Rises=F Damp=F
 DIIS: error= 1.10D-06 at cycle   4 NSaved=   4.
 NSaved= 4 IEnMin= 4 EnMin= -689.312326588943     IErMin= 4 ErrMin= 1.10D-06
 ErrMax= 1.10D-06  0.00D+00 EMaxC= 1.00D-01 BMatC= 2.45D-10 BMatP= 7.92D-10
 IDIUse=1 WtCom= 1.00D+00 WtEn= 0.00D+00
 Coeff-Com: -0.219D-01 0.497D-01 0.508D+00 0.464D+00
 Coeff:     -0.219D-01 0.497D-01 0.508D+00 0.464D+00
 Gap=     0.104 Goal=   None    Shift=    0.000
 RMSDP=1.01D-07 MaxDP=2.64D-06 DE=-6.86D-10 OVMax= 4.83D-06

 Cycle  12  Pass 1  IDiag  1:
 E= -689.312326589197     Delta-E=       -0.000000000254 Rises=F Damp=F
 DIIS: error= 2.78D-07 at cycle   5 NSaved=   5.
 NSaved= 5 IEnMin= 5 EnMin= -689.312326589197     IErMin= 5 ErrMin= 2.78D-07
 ErrMax= 2.78D-07  0.00D+00 EMaxC= 1.00D-01 BMatC= 4.04D-12 BMatP= 2.45D-10
 IDIUse=1 WtCom= 1.00D+00 WtEn= 0.00D+00
 Coeff-Com: -0.116D-01 0.222D-01 0.240D+00 0.234D+00 0.515D+00
 Coeff:     -0.116D-01 0.222D-01 0.240D+00 0.234D+00 0.515D+00
 Gap=     0.104 Goal=   None    Shift=    0.000
 RMSDP=2.18D-08 MaxDP=3.66D-07 DE=-2.54D-10 OVMax= 1.24D-06

 Cycle  13  Pass 1  IDiag  1:
 E= -689.312326589206     Delta-E=       -0.000000000009 Rises=F Damp=F
 DIIS: error= 1.20D-07 at cycle   6 NSaved=   6.
 NSaved= 6 IEnMin= 6 EnMin= -689.312326589206     IErMin= 6 ErrMin= 1.20D-07
 ErrMax= 1.20D-07  0.00D+00 EMaxC= 1.00D-01 BMatC= 1.03D-12 BMatP= 4.04D-12
 IDIUse=1 WtCom= 1.00D+00 WtEn= 0.00D+00
 Coeff-Com: -0.197D-02 0.114D-02 0.245D-01 0.312D-01 0.336D+00 0.609D+00
 Coeff:     -0.197D-02 0.114D-02 0.245D-01 0.312D-01 0.336D+00 0.609D+00
 Gap=     0.104 Goal=   None    Shift=    0.000
 RMSDP=7.71D-09 MaxDP=1.69D-07 DE=-8.87D-12 OVMax= 4.86D-07

 SCF Done:  E(RB3LYP) =  -689.312326589     A.U. after   13 cycles
            NFock= 13  Conv=0.77D-08     -V/T= 2.0075
 KE= 6.841816229709D+02 PE=-3.833214737849D+03 EE= 1.341111781555D+03
 Leave Link  502 at Sat Apr  4 20:31:42 2026, MaxMem=  2415919104 cpu:              67.2 elap:               9.1
 (Enter /opt/software/gaussian/g16_avx/g16/l601.exe)
 Copying SCF densities to generalized density rwf, IOpCl= 0 IROHF=0.

 **********************************************************************

            Population analysis using the SCF Density.

 **********************************************************************

 Orbital symmetries:
       Occupied  (AU) (AU) (AG) (AG) (AU) (AG) (AU) (AG) (AU) (AG)
                 (AG) (AU) (AU) (AG) (AU) (AG) (AU) (AG) (AG) (AU)
                 (AG) (AU) (AU) (AG) (AG) (AU) (AG) (AU) (AU) (AG)
                 (AG) (AU) (AG) (AG) (AU) (AU) (AU) (AG) (AG) (AU)
                 (AG) (AU) (AG) (AG) (AU) (AU) (AU) (AG) (AG) (AU)
                 (AU) (AG) (AU) (AG) (AG) (AG) (AU) (AU) (AG) (AU)
       Virtual   (AG) (AU) (AG) (AG) (AU) (AU) (AG) (AU) (AG) (AU)
                 (AG) (AG) (AU) (AU) (AU) (AG) (AG) (AU) (AU) (AG)
                 (AG) (AU) (AG) (AU) (AG) (AU) (AG) (AU) (AG) (AU)
                 (AG) (AU) (AG) (AU) (AU) (AG) (AG) (AU) (AU) (AU)
                 (AG) (AG) (AG) (AU) (AU) (AG) (AG) (AU) (AU) (AU)
                 (AG) (AG) (AU) (AG) (AG) (AU) (AU) (AG) (AU) (AG)
                 (AG) (AU) (AU) (AU) (AG) (AU) (AG) (AG) (AU) (AG)
                 (AG) (AU) (AU) (AG) (AG) (AU) (AU) (AG) (AU) (AG)
                 (AU) (AG) (AU) (AG) (AU) (AG) (AG) (AU) (AU) (AG)
                 (AG) (AU) (AG) (AU) (AU) (AG) (AG) (AU) (AG) (AU)
                 (AU) (AG) (AU) (AG) (AG) (AU) (AG) (AU) (AU) (AG)
                 (AG) (AU) (AG) (AU) (AG) (AU) (AG) (AU) (AG) (AU)
                 (AU) (AG) (AG) (AU) (AG) (AU)
 The electronic state is 1-AG.
 Alpha  occ. eigenvalues --  -10.13975 -10.13904 -10.13903 -10.13866 -10.13611
 Alpha  occ. eigenvalues --  -10.13610 -10.13326 -10.13326 -10.13164 -10.13163
 Alpha  occ. eigenvalues --  -10.13012 -10.13012 -10.12912 -10.12903 -10.12849
 Alpha  occ. eigenvalues --  -10.12825 -10.12686 -10.12685  -0.89770  -0.87349
 Alpha  occ. eigenvalues --   -0.83566  -0.79891  -0.79668  -0.77385  -0.74865
 Alpha  occ. eigenvalues --   -0.74026  -0.70053  -0.66924  -0.63037  -0.62159
 Alpha  occ. eigenvalues --   -0.60769  -0.60752  -0.56955  -0.54051  -0.51436
 Alpha  occ. eigenvalues --   -0.51064  -0.50786  -0.46528  -0.46397  -0.45988
 Alpha  occ. eigenvalues --   -0.45172  -0.43253  -0.42855  -0.42141  -0.41557
 Alpha  occ. eigenvalues --   -0.41410  -0.41368  -0.38476  -0.37546  -0.37223
 Alpha  occ. eigenvalues --   -0.35059  -0.34527  -0.33965  -0.32507  -0.30899
 Alpha  occ. eigenvalues --   -0.29248  -0.27714  -0.24479  -0.23458  -0.18134
 Alpha virt. eigenvalues --   -0.07771  -0.01800  -0.00887   0.02390   0.04911
 Alpha virt. eigenvalues --    0.05582   0.11714   0.12456   0.12941   0.13034
 Alpha virt. eigenvalues --    0.14584   0.15657   0.17015   0.18642   0.19434
 Alpha virt. eigenvalues --    0.20038   0.20603   0.20650   0.20994   0.23419
 Alpha virt. eigenvalues --    0.24506   0.24842   0.27097   0.27745   0.27928
 Alpha virt. eigenvalues --    0.31203   0.31990   0.32266   0.33092   0.33813
 Alpha virt. eigenvalues --    0.37109   0.38499   0.40471   0.46022   0.46708
 Alpha virt. eigenvalues --    0.48515   0.53590   0.53804   0.56241   0.59269
 Alpha virt. eigenvalues --    0.59701   0.62869   0.64444   0.64791   0.67123
 Alpha virt. eigenvalues --    0.68800   0.69658   0.69888   0.71358   0.72216
 Alpha virt. eigenvalues --    0.72907   0.74604   0.74636   0.74968   0.75269
 Alpha virt. eigenvalues --    0.76593   0.78749   0.78983   0.79305   0.79501
 Alpha virt. eigenvalues --    0.79848   0.80631   0.82141   0.82216   0.82853
 Alpha virt. eigenvalues --    0.83357   0.84707   0.85098   0.88208   0.89250
 Alpha virt. eigenvalues --    0.89697   0.90296   0.90775   0.95989   0.98623
 Alpha virt. eigenvalues --    0.98996   1.00314   1.00500   1.01085   1.03195
 Alpha virt. eigenvalues --    1.03395   1.04782   1.05999   1.07345   1.07836
 Alpha virt. eigenvalues --    1.09324   1.15478   1.16626   1.24071   1.26714
 Alpha virt. eigenvalues --    1.30650   1.30978   1.31885   1.32930   1.35503
 Alpha virt. eigenvalues --    1.35657   1.37815   1.38141   1.39615   1.41894
 Alpha virt. eigenvalues --    1.43921   1.48948   1.49321   1.50353   1.52143
 Alpha virt. eigenvalues --    1.52194   1.52915   1.52918   1.53578   1.54521
 Alpha virt. eigenvalues --    1.56540   1.58990   1.64363   1.64580   1.76062
 Alpha virt. eigenvalues --    1.77772   1.85426   1.90490   1.92006   1.95345
 Alpha virt. eigenvalues --    2.03894   2.04013   2.25988   2.34811   2.49486
 Alpha virt. eigenvalues --    2.54205
          Condensed to atoms (all electrons):
               1          2          3          4          5          6
     1  C    5.132054   0.498171  -0.077106   0.003248  -0.000152   0.000001
     2  C    0.498171   5.140019   0.394177  -0.065613   0.003484  -0.000081
     3  C   -0.077106   0.394177   5.147386   0.463625  -0.084711   0.003950
     4  C    0.003248  -0.065613   0.463625   5.197989   0.443171  -0.064435
     5  C   -0.000152   0.003484  -0.084711   0.443171   5.111246   0.438104
     6  C    0.000001  -0.000081   0.003950  -0.064435   0.438104   5.206214
     7  C   -0.015952  -0.055428   0.400934  -0.087261  -0.011642   0.000262
     8  C   -0.076334  -0.025738  -0.058568   0.004992   0.000217  -0.000001
     9  C    0.405480  -0.070933  -0.016329   0.000193   0.000008   0.000000
    10  H    0.395432  -0.050081   0.005053  -0.000090   0.000001  -0.000000
    11  H   -0.038505   0.396266  -0.048629  -0.002221   0.000057  -0.000000
    12  H    0.000141  -0.004039  -0.043186   0.391399  -0.044807  -0.002809
    13  H    0.000000  -0.000003   0.000125  -0.003476  -0.046141   0.389737
    14  H    0.003509  -0.000073   0.004153  -0.000096   0.000004  -0.000000
    15  H   -0.040754   0.003676  -0.000136  -0.000000   0.000000   0.000000
    16  C    0.000008   0.000138  -0.011746  -0.062891   0.406621  -0.079072
    17  C   -0.000000   0.000000  -0.000172   0.003389  -0.084245   0.469041
    18  C    0.000097   0.004298  -0.076729  -0.033777  -0.079072   0.006204
    19  C   -0.000000   0.000001   0.000091   0.004143  -0.062891  -0.033777
    20  C   -0.000000  -0.000000   0.000010   0.000091  -0.011746  -0.076729
    21  C    0.000000  -0.000000   0.000001  -0.000077   0.003792  -0.066638
    22  H    0.000009  -0.000080   0.003961   0.000001   0.004054  -0.000115
    23  H    0.000000  -0.000000   0.000005  -0.000072   0.003564  -0.000061
    24  C   -0.000000   0.000000  -0.000000   0.000001   0.000138   0.004298
    25  C   -0.000000   0.000000  -0.000000   0.000000  -0.000145   0.002899
    26  H    0.000000  -0.000000  -0.000000  -0.000002   0.000115  -0.003007
    27  C    0.000000  -0.000000  -0.000000  -0.000000   0.000008   0.000097
    28  H   -0.000000   0.000000   0.000000  -0.000000   0.000003  -0.000074
    29  H    0.000000  -0.000000   0.000000  -0.000000   0.000000  -0.000063
    30  H    0.000000   0.000000  -0.000000   0.000000   0.000000   0.000000
               7          8          9         10         11         12
     1  C   -0.015952  -0.076334   0.405480   0.395432  -0.038505   0.000141
     2  C   -0.055428  -0.025738  -0.070933  -0.050081   0.396266  -0.004039
     3  C    0.400934  -0.058568  -0.016329   0.005053  -0.048629  -0.043186
     4  C   -0.087261   0.004992   0.000193  -0.000090  -0.002221   0.391399
     5  C   -0.011642   0.000217   0.000008   0.000001   0.000057  -0.044807
     6  C    0.000262  -0.000001   0.000000  -0.000000  -0.000000  -0.002809
     7  C    5.138225   0.401944  -0.072477  -0.000128   0.003749   0.004181
     8  C    0.401944   5.142560   0.491858   0.003807  -0.000127  -0.000089
     9  C   -0.072477   0.491858   5.134076  -0.040343   0.003411   0.000009
    10  H   -0.000128   0.003807  -0.040343   0.501148  -0.004492  -0.000004
    11  H    0.003749  -0.000127   0.003411  -0.004492   0.500830   0.004026
    12  H    0.004181  -0.000089   0.000009  -0.000004   0.004026   0.509978
    13  H    0.000008  -0.000000   0.000000  -0.000000   0.000001   0.004243
    14  H   -0.050734   0.394967  -0.037698  -0.000047   0.000003   0.000001
    15  H    0.004084  -0.041963   0.396226  -0.003162  -0.000041  -0.000000
    16  C   -0.084245   0.003792  -0.000145   0.000000   0.000003   0.003564
    17  C    0.000011  -0.000000  -0.000000   0.000000  -0.000000   0.000067
    18  C    0.469041  -0.066638   0.002899   0.000000  -0.000074  -0.000061
    19  C    0.003389  -0.000077   0.000000   0.000000  -0.000000  -0.000072
    20  C   -0.000172   0.000001  -0.000000  -0.000000   0.000000   0.000005
    21  C   -0.000000  -0.000000  -0.000000  -0.000000   0.000000  -0.000002
    22  H   -0.042333  -0.003664   0.000109  -0.000000   0.000001   0.000006
    23  H    0.000067  -0.000002   0.000000   0.000000   0.000000   0.000001
    24  C    0.000000  -0.000000   0.000000   0.000000   0.000000  -0.000000
    25  C   -0.000000  -0.000000   0.000000   0.000000   0.000000   0.000000
    26  H    0.000000   0.000000  -0.000000  -0.000000  -0.000000   0.000001
    27  C   -0.000000   0.000000  -0.000000   0.000000  -0.000000   0.000000
    28  H   -0.000000   0.000000   0.000000  -0.000000   0.000000   0.000000
    29  H   -0.000000   0.000000   0.000000  -0.000000   0.000000  -0.000000
    30  H    0.000000  -0.000000   0.000000   0.000000  -0.000000   0.000000
              13         14         15         16         17         18
     1  C    0.000000   0.003509  -0.040754   0.000008  -0.000000   0.000097
     2  C   -0.000003  -0.000073   0.003676   0.000138   0.000000   0.004298
     3  C    0.000125   0.004153  -0.000136  -0.011746  -0.000172  -0.076729
     4  C   -0.003476  -0.000096  -0.000000  -0.062891   0.003389  -0.033777
     5  C   -0.046141   0.000004   0.000000   0.406621  -0.084245  -0.079072
     6  C    0.389737  -0.000000   0.000000  -0.079072   0.469041   0.006204
     7  C    0.000008  -0.050734   0.004084  -0.084245   0.000011   0.469041
     8  C   -0.000000   0.394967  -0.041963   0.003792  -0.000000  -0.066638
     9  C    0.000000  -0.037698   0.396226  -0.000145  -0.000000   0.002899
    10  H   -0.000000  -0.000047  -0.003162   0.000000   0.000000   0.000000
    11  H    0.000001   0.000003  -0.000041   0.000003  -0.000000  -0.000074
    12  H    0.004243   0.000001  -0.000000   0.003564   0.000067  -0.000061
    13  H    0.512054   0.000000   0.000000   0.004054  -0.042333  -0.000115
    14  H    0.000000   0.501320  -0.003356   0.000115   0.000000  -0.003007
    15  H    0.000000  -0.003356   0.493315   0.000000  -0.000000  -0.000063
    16  C    0.004054   0.000115   0.000000   5.111246  -0.011642   0.438104
    17  C   -0.042333   0.000000  -0.000000  -0.011642   5.138225   0.000262
    18  C   -0.000115  -0.003007  -0.000063   0.438104   0.000262   5.206214
    19  C    0.000001  -0.000002  -0.000000   0.443171  -0.087261  -0.064435
    20  C    0.003961  -0.000000   0.000000  -0.084711   0.400934   0.003950
    21  C   -0.003664   0.000000   0.000000   0.000217   0.401944  -0.000001
    22  H    0.000001   0.004518  -0.000002  -0.046141   0.000008   0.389737
    23  H    0.000006   0.000001  -0.000000  -0.044807   0.004181  -0.002809
    24  C   -0.000080  -0.000000  -0.000000   0.003484  -0.055428  -0.000081
    25  C    0.000109  -0.000000   0.000000   0.000008  -0.072477   0.000000
    26  H    0.004518   0.000000  -0.000000   0.000004  -0.050734  -0.000000
    27  C    0.000009   0.000000   0.000000  -0.000152  -0.015952   0.000001
    28  H    0.000001  -0.000000   0.000000   0.000057   0.003749  -0.000000
    29  H   -0.000002  -0.000000   0.000000   0.000000   0.004084   0.000000
    30  H   -0.000000  -0.000000  -0.000000   0.000001  -0.000128  -0.000000
              19         20         21         22         23         24
     1  C   -0.000000  -0.000000   0.000000   0.000009   0.000000  -0.000000
     2  C    0.000001  -0.000000  -0.000000  -0.000080  -0.000000   0.000000
     3  C    0.000091   0.000010   0.000001   0.003961   0.000005  -0.000000
     4  C    0.004143   0.000091  -0.000077   0.000001  -0.000072   0.000001
     5  C   -0.062891  -0.011746   0.003792   0.004054   0.003564   0.000138
     6  C   -0.033777  -0.076729  -0.066638  -0.000115  -0.000061   0.004298
     7  C    0.003389  -0.000172  -0.000000  -0.042333   0.000067   0.000000
     8  C   -0.000077   0.000001  -0.000000  -0.003664  -0.000002  -0.000000
     9  C    0.000000  -0.000000  -0.000000   0.000109   0.000000   0.000000
    10  H    0.000000  -0.000000  -0.000000  -0.000000   0.000000   0.000000
    11  H   -0.000000   0.000000   0.000000   0.000001   0.000000   0.000000
    12  H   -0.000072   0.000005  -0.000002   0.000006   0.000001  -0.000000
    13  H    0.000001   0.003961  -0.003664   0.000001   0.000006  -0.000080
    14  H   -0.000002  -0.000000   0.000000   0.004518   0.000001  -0.000000
    15  H   -0.000000   0.000000   0.000000  -0.000002  -0.000000  -0.000000
    16  C    0.443171  -0.084711   0.000217  -0.046141  -0.044807   0.003484
    17  C   -0.087261   0.400934   0.401944   0.000008   0.004181  -0.055428
    18  C   -0.064435   0.003950  -0.000001   0.389737  -0.002809  -0.000081
    19  C    5.197989   0.463625   0.004992  -0.003476   0.391399  -0.065613
    20  C    0.463625   5.147386  -0.058568   0.000125  -0.043186   0.394177
    21  C    0.004992  -0.058568   5.142560  -0.000000  -0.000089  -0.025738
    22  H   -0.003476   0.000125  -0.000000   0.512054   0.004243  -0.000003
    23  H    0.391399  -0.043186  -0.000089   0.004243   0.509978  -0.004039
    24  C   -0.065613   0.394177  -0.025738  -0.000003  -0.004039   5.140019
    25  C    0.000193  -0.016329   0.491858   0.000000   0.000009  -0.070933
    26  H   -0.000096   0.004153   0.394967   0.000000   0.000001  -0.000073
    27  C    0.003248  -0.077106  -0.076334   0.000000   0.000141   0.498171
    28  H   -0.002221  -0.048629  -0.000127   0.000001   0.004026   0.396266
    29  H   -0.000000  -0.000136  -0.041963   0.000000  -0.000000   0.003676
    30  H   -0.000090   0.005053   0.003807  -0.000000  -0.000004  -0.050081
              25         26         27         28         29         30
     1  C   -0.000000   0.000000   0.000000  -0.000000   0.000000   0.000000
     2  C    0.000000  -0.000000  -0.000000   0.000000  -0.000000   0.000000
     3  C   -0.000000  -0.000000  -0.000000   0.000000   0.000000  -0.000000
     4  C    0.000000  -0.000002  -0.000000  -0.000000  -0.000000   0.000000
     5  C   -0.000145   0.000115   0.000008   0.000003   0.000000   0.000000
     6  C    0.002899  -0.003007   0.000097  -0.000074  -0.000063   0.000000
     7  C   -0.000000   0.000000  -0.000000  -0.000000  -0.000000   0.000000
     8  C   -0.000000   0.000000   0.000000   0.000000   0.000000  -0.000000
     9  C    0.000000  -0.000000  -0.000000   0.000000   0.000000   0.000000
    10  H    0.000000  -0.000000   0.000000  -0.000000  -0.000000   0.000000
    11  H    0.000000  -0.000000  -0.000000   0.000000   0.000000  -0.000000
    12  H    0.000000   0.000001   0.000000   0.000000  -0.000000   0.000000
    13  H    0.000109   0.004518   0.000009   0.000001  -0.000002  -0.000000
    14  H   -0.000000   0.000000   0.000000  -0.000000  -0.000000  -0.000000
    15  H    0.000000  -0.000000   0.000000   0.000000   0.000000  -0.000000
    16  C    0.000008   0.000004  -0.000152   0.000057   0.000000   0.000001
    17  C   -0.072477  -0.050734  -0.015952   0.003749   0.004084  -0.000128
    18  C    0.000000  -0.000000   0.000001  -0.000000   0.000000  -0.000000
    19  C    0.000193  -0.000096   0.003248  -0.002221  -0.000000  -0.000090
    20  C   -0.016329   0.004153  -0.077106  -0.048629  -0.000136   0.005053
    21  C    0.491858   0.394967  -0.076334  -0.000127  -0.041963   0.003807
    22  H    0.000000   0.000000   0.000000   0.000001   0.000000  -0.000000
    23  H    0.000009   0.000001   0.000141   0.004026  -0.000000  -0.000004
    24  C   -0.070933  -0.000073   0.498171   0.396266   0.003676  -0.050081
    25  C    5.134076  -0.037698   0.405480   0.003411   0.396226  -0.040343
    26  H   -0.037698   0.501320   0.003509   0.000003  -0.003356  -0.000047
    27  C    0.405480   0.003509   5.132054  -0.038505  -0.040754   0.395432
    28  H    0.003411   0.000003  -0.038505   0.500830  -0.000041  -0.004492
    29  H    0.396226  -0.003356  -0.040754  -0.000041   0.493315  -0.003162
    30  H   -0.040343  -0.000047   0.395432  -0.004492  -0.003162   0.501148
 Mulliken charges:
               1
     1  C   -0.189346
     2  C   -0.168161
     3  C   -0.006161
     4  C   -0.192229
     5  C    0.010963
     6  C   -0.193945
     7  C   -0.005524
     8  C   -0.170936
     9  C   -0.196344
    10  H    0.192906
    11  H    0.185743
    12  H    0.177449
    13  H    0.176987
    14  H    0.186422
    15  H    0.192176
    16  C    0.010963
    17  C   -0.005524
    18  C   -0.193945
    19  C   -0.192229
    20  C   -0.006161
    21  C   -0.170936
    22  H    0.176987
    23  H    0.177449
    24  C   -0.168161
    25  C   -0.196344
    26  H    0.186422
    27  C   -0.189346
    28  H    0.185743
    29  H    0.192176
    30  H    0.192906
 Sum of Mulliken charges =  -0.00000
 Mulliken charges with hydrogens summed into heavy atoms:
               1
     1  C    0.003560
     2  C    0.017582
     3  C   -0.006161
     4  C   -0.014780
     5  C    0.010963
     6  C   -0.016957
     7  C   -0.005524
     8  C    0.015486
     9  C   -0.004168
    16  C    0.010963
    17  C   -0.005524
    18  C   -0.016957
    19  C   -0.014780
    20  C   -0.006161
    21  C    0.015486
    24  C    0.017582
    25  C   -0.004168
    27  C    0.003560
 Electronic spatial extent (au):  <R**2>=           5398.6536
 Charge=             -0.0000 electrons
 Dipole moment (field-independent basis, Debye):
    X=             -0.0000    Y=              0.0000    Z=              0.0000  Tot=              0.0000
 Quadrupole moment (field-independent basis, Debye-Ang):
   XX=           -107.8185   YY=            -93.5497   ZZ=            -87.9553
   XY=              9.8714   XZ=             -3.0502   YZ=              1.1130
 Traceless Quadrupole moment (field-independent basis, Debye-Ang):
   XX=            -11.3773   YY=              2.8914   ZZ=              8.4859
   XY=              9.8714   XZ=             -3.0502   YZ=              1.1130
 Octapole moment (field-independent basis, Debye-Ang**2):
  XXX=             -0.0000  YYY=              0.0000  ZZZ=              0.0000  XYY=              0.0000
  XXY=             -0.0000  XXZ=              0.0000  XZZ=             -0.0000  YZZ=              0.0000
  YYZ=             -0.0000  XYZ=              0.0000
 Hexadecapole moment (field-independent basis, Debye-Ang**3):
 XXXX=           -834.6065 YYYY=          -1027.2466 ZZZZ=          -5000.8878 XXXY=           -366.1255
 XXXZ=            827.9743 YYYX=           -294.4130 YYYZ=            561.4362 ZZZX=            601.4885
 ZZZY=            550.2876 XXYY=           -270.8719 XXZZ=          -1093.6216 YYZZ=          -1049.1978
 XXYZ=            156.1747 YYXZ=            203.4981 ZZXY=             -9.0053
 N-N= 1.118609006734D+03 E-N=-3.833214743959D+03  KE= 6.841816229709D+02
 Symmetry AG   KE= 3.426085240859D+02
 Symmetry AU   KE= 3.415730988850D+02
 No NMR shielding tensors so no spin-rotation constants.
 Leave Link  601 at Sat Apr  4 20:31:42 2026, MaxMem=  2415919104 cpu:               0.7 elap:               0.1
 (Enter /opt/software/gaussian/g16_avx/g16/l701.exe)
 ... and contract with generalized density number  0.
 Compute integral first derivatives.
 Leave Link  701 at Sat Apr  4 20:31:42 2026, MaxMem=  2415919104 cpu:               0.7 elap:               0.1
 (Enter /opt/software/gaussian/g16_avx/g16/l702.exe)
 L702 exits ... SP integral derivatives will be done elsewhere.
 Leave Link  702 at Sat Apr  4 20:31:42 2026, MaxMem=  2415919104 cpu:               0.2 elap:               0.0
 (Enter /opt/software/gaussian/g16_avx/g16/l703.exe)
 Integral derivatives from FoFJK, PRISM(SPDF).
 Compute integral first derivatives, UseDBF=F ICtDFT=           0.
 Calling FoFJK, ICntrl=      2127 FMM=F ISym2X=1 I1Cent= 0 IOpClX= 0 NMat=1 NMatS=1 NMatT=0.
 FoFJK:  IHMeth= 1 ICntrl=    2127 DoSepK=F KAlg= 0 I1Cent=           0 FoldK=F
 IRaf=         0 NMat=       1 IRICut=       1 DoRegI=T DoRafI=F ISym2E= 1 IDoP0=0 IntGTp=1.
 FoFCou: FMM=F IPFlag=           0 FMFlag=      100000 FMFlg1=         800
         NFxFlg=           0 DoJE=F BraDBF=F KetDBF=F FulRan=T
         wScrn=  0.000000 ICntrl=      2127 IOpCl=  0 I1Cent=           0 NGrid=           0
         NMat0=    1 NMatS0=      1 NMatT0=    0 NMatD0=    1 NMtDS0=    0 NMtDT0=    0
 Petite list used in FoFCou.
 Leave Link  703 at Sat Apr  4 20:31:44 2026, MaxMem=  2415919104 cpu:              15.3 elap:               1.9
 (Enter /opt/software/gaussian/g16_avx/g16/l716.exe)
 Dipole        =-6.21724894D-15-4.55191440D-15 5.15143483D-14
 ***** Axes restored to original set *****
 -------------------------------------------------------------------
 Center     Atomic                   Forces (Hartrees/Bohr)
 Number     Number              X              Y              Z
 -------------------------------------------------------------------
      1        6           0.004674353   -0.009197715   -0.046243633
      2        6          -0.019225050   -0.027291294   -0.030899720
      3        6           0.004710455    0.004119540    0.052898967
      4        6           0.018711311    0.029603227   -0.042713858
      5        6          -0.015029858   -0.021459779    0.025812181
      6        6           0.011361437    0.028405282   -0.017930937
      7        6          -0.028218052   -0.025758609   -0.013449210
      8        6           0.022924471    0.030803013    0.046999363
      9        6           0.024906871    0.031253842   -0.063331448
     10        1          -0.005244006    0.005818683    0.053491796
     11        1           0.009672225    0.017869799    0.011611747
     12        1           0.000649421    0.000126211    0.003257968
     13        1           0.002677040    0.000720456   -0.000243719
     14        1          -0.016148281   -0.028523335   -0.010518831
     15        1          -0.019264145   -0.025879734    0.027772120
     16        6           0.015029858    0.021459779   -0.025812181
     17        6           0.028218052    0.025758609    0.013449210
     18        6          -0.011361437   -0.028405282    0.017930937
     19        6          -0.018711311   -0.029603227    0.042713858
     20        6          -0.004710455   -0.004119540   -0.052898967
     21        6          -0.022924471   -0.030803013   -0.046999363
     22        1          -0.002677040   -0.000720456    0.000243719
     23        1          -0.000649421   -0.000126211   -0.003257968
     24        6           0.019225050    0.027291294    0.030899720
     25        6          -0.024906871   -0.031253842    0.063331448
     26        1           0.016148281    0.028523335    0.010518831
     27        6          -0.004674353    0.009197715    0.046243633
     28        1          -0.009672225   -0.017869799   -0.011611747
     29        1           0.019264145    0.025879734   -0.027772120
     30        1           0.005244006   -0.005818683   -0.053491796
 -------------------------------------------------------------------
 Cartesian Forces:  Max     0.063331448 RMS     0.025919122
 Leave Link  716 at Sat Apr  4 20:31:44 2026, MaxMem=  2415919104 cpu:               0.2 elap:               0.0
 (Enter /opt/software/gaussian/g16_avx/g16/l103.exe)

 GradGradGradGradGradGradGradGradGradGradGradGradGradGradGradGradGradGrad
 Berny optimization.
 FormGI is forming the generalized inverse of G from B-inverse, IUseBI=4.
 Internal  Forces:  Max     0.053499538 RMS     0.012309282
 Search for a local minimum.
 Step number   1 out of a maximum of  180
 All quantities printed in internal units (Hartrees-Bohrs-Radians)
 RMS Force = .12309D-01 SwitMx=.10000D-02 MixMth= 1
 Mixed Optimization -- RFO/linear search
 Second derivative matrix not updated -- first step.
 ITU=  0
     Eigenvalues ---    0.01538   0.01538   0.01640   0.01661   0.01663
     Eigenvalues ---    0.01802   0.01814   0.01828   0.01830   0.01869
     Eigenvalues ---    0.01875   0.01887   0.01920   0.01958   0.01968
     Eigenvalues ---    0.01982   0.01998   0.02068   0.02109   0.02191
     Eigenvalues ---    0.02195   0.02275   0.02285   0.02331   0.02339
     Eigenvalues ---    0.02350   0.02419   0.15824   0.15824   0.15954
     Eigenvalues ---    0.15954   0.15974   0.15977   0.15985   0.15987
     Eigenvalues ---    0.15992   0.15992   0.15998   0.15998   0.21998
     Eigenvalues ---    0.21998   0.22409   0.22470   0.23063   0.23364
     Eigenvalues ---    0.23734   0.24022   0.24468   0.24522   0.24931
     Eigenvalues ---    0.24962   0.34196   0.34660   0.34850   0.35406
     Eigenvalues ---    0.35406   0.35493   0.35493   0.37023   0.37339
     Eigenvalues ---    0.38818   0.38891   0.38998   0.39311   0.39455
     Eigenvalues ---    0.39455   0.41177   0.41177   0.42304   0.42471
     Eigenvalues ---    0.42805   0.42805   0.43575   0.43575   0.44235
     Eigenvalues ---    0.44235   0.44415   0.44586   0.49794   0.49896
     Eigenvalues ---    0.50366   0.50375   0.54552   0.54579
 RFO step:  Lambda=-5.48181647D-02 EMin= 1.53774393D-02
 Linear search not attempted -- first point.
 Maximum step size (   0.300) exceeded in Quadratic search.
    -- Step size scaled by   0.887
 Iteration  1 RMS(Cart)=  0.03052507 RMS(Int)=  0.00049925
 Iteration  2 RMS(Cart)=  0.00057342 RMS(Int)=  0.00017045
 Iteration  3 RMS(Cart)=  0.00000053 RMS(Int)=  0.00017045
 ITry= 1 IFail=0 DXMaxC= 1.08D-01 DCOld= 1.00D+10 DXMaxT= 3.00D-01 DXLimC= 3.00D+00 Rises=F
 ClnCor:  largest displacement from symmetrization is 1.34D-10 for atom    29.
 Variable       Old X    -DE/DX   Delta X   Delta X   Delta X     New X
                                 (Linear)    (Quad)   (Total)
    R1        2.58196  -0.00160   0.00000  -0.00299  -0.00297   2.57899
    R2        2.73153  -0.00771   0.00000  -0.01852  -0.01846   2.71307
    R3        1.92875   0.05350   0.00000   0.09549   0.09549   2.02424
    R4        2.77756  -0.01454   0.00000  -0.02865  -0.02870   2.74886
    R5        1.99000   0.02290   0.00000   0.04522   0.04522   2.03522
    R6        2.54530   0.04285   0.00000   0.06314   0.06312   2.60842
    R7        2.64918   0.03127   0.00000   0.05969   0.05971   2.70889
    R8        2.70817  -0.00945   0.00000  -0.01943  -0.01951   2.68866
    R9        2.04882   0.00144   0.00000   0.00311   0.00311   2.05193
   R10        2.58080   0.03734   0.00000   0.05686   0.05688   2.63768
   R11        2.75153   0.01127   0.00000   0.01776   0.01765   2.76917
   R12        2.05020   0.00157   0.00000   0.00341   0.00341   2.05362
   R13        2.64555  -0.00098   0.00000  -0.00057  -0.00049   2.64506
   R14        2.71932  -0.00190   0.00000  -0.00316  -0.00319   2.71613
   R15        2.64555  -0.00098   0.00000  -0.00057  -0.00049   2.64506
   R16        2.66007  -0.03340   0.00000  -0.06162  -0.06158   2.59849
   R17        1.96685   0.03390   0.00000   0.06448   0.06448   2.03132
   R18        1.94611   0.04246   0.00000   0.07803   0.07803   2.02414
   R19        2.58080   0.03734   0.00000   0.05686   0.05688   2.63768
   R20        2.70817  -0.00945   0.00000  -0.01943  -0.01951   2.68866
   R21        2.64918   0.03127   0.00000   0.05969   0.05971   2.70889
   R22        2.71932  -0.00190   0.00000  -0.00316  -0.00319   2.71613
   R23        2.05020   0.00157   0.00000   0.00341   0.00341   2.05362
   R24        2.54530   0.04285   0.00000   0.06314   0.06312   2.60842
   R25        2.04882   0.00144   0.00000   0.00311   0.00311   2.05193
   R26        2.77756  -0.01454   0.00000  -0.02865  -0.02870   2.74886
   R27        2.66007  -0.03340   0.00000  -0.06162  -0.06158   2.59849
   R28        1.96685   0.03390   0.00000   0.06448   0.06448   2.03132
   R29        2.58196  -0.00160   0.00000  -0.00299  -0.00297   2.57899
   R30        1.99000   0.02290   0.00000   0.04522   0.04522   2.03522
   R31        2.73153  -0.00771   0.00000  -0.01852  -0.01846   2.71307
   R32        1.94611   0.04246   0.00000   0.07803   0.07803   2.02414
   R33        1.92875   0.05350   0.00000   0.09549   0.09549   2.02424
    A1        2.12984  -0.00218   0.00000  -0.01224  -0.01214   2.11770
    A2        2.03533   0.00861   0.00000   0.03722   0.03715   2.07248
    A3        2.11785  -0.00642   0.00000  -0.02486  -0.02492   2.09293
    A4        2.08962   0.00277   0.00000   0.01281   0.01278   2.10240
    A5        2.15537  -0.00561   0.00000  -0.02355  -0.02362   2.13176
    A6        2.03581   0.00294   0.00000   0.01189   0.01185   2.04766
    A7        2.11188   0.00712   0.00000   0.01332   0.01329   2.12517
    A8        2.07519  -0.00734   0.00000  -0.01526  -0.01540   2.05978
    A9        2.09360   0.00033   0.00000   0.00335   0.00334   2.09694
   A10        2.12613  -0.00103   0.00000  -0.00232  -0.00246   2.12367
   A11        2.12245  -0.00236   0.00000  -0.01059  -0.01054   2.11192
   A12        2.03382   0.00343   0.00000   0.01327   0.01331   2.04713
   A13        2.16761  -0.00898   0.00000  -0.02081  -0.02071   2.14690
   A14        2.06060   0.00060   0.00000  -0.00090  -0.00104   2.05957
   A15        2.05497   0.00838   0.00000   0.02171   0.02175   2.07671
[...]
 Alpha  occ. eigenvalues --  -10.14328 -10.13381 -10.13377 -10.13367 -10.13351
 Alpha  occ. eigenvalues --  -10.13350 -10.13344 -10.13300 -10.13295 -10.13230
 Alpha  occ. eigenvalues --  -10.13229 -10.13133 -10.13130  -0.89096  -0.87069
 Alpha  occ. eigenvalues --   -0.83891  -0.79597  -0.79496  -0.77395  -0.74315
 Alpha  occ. eigenvalues --   -0.74195  -0.70058  -0.66590  -0.62879  -0.61300
 Alpha  occ. eigenvalues --   -0.60890  -0.59753  -0.56537  -0.53540  -0.51454
 Alpha  occ. eigenvalues --   -0.50186  -0.50083  -0.46332  -0.46018  -0.45567
 Alpha  occ. eigenvalues --   -0.45089  -0.43167  -0.42428  -0.42176  -0.41750
 Alpha  occ. eigenvalues --   -0.41003  -0.40757  -0.38390  -0.37263  -0.37068
 Alpha  occ. eigenvalues --   -0.34340  -0.34314  -0.34310  -0.33057  -0.30952
 Alpha  occ. eigenvalues --   -0.29123  -0.28128  -0.24140  -0.23791  -0.18290
 Alpha virt. eigenvalues --   -0.07773  -0.01611  -0.01364   0.03010   0.04702
 Alpha virt. eigenvalues --    0.05385   0.11464   0.11496   0.12053   0.12090
 Alpha virt. eigenvalues --    0.14265   0.14720   0.16341   0.18100   0.18524
 Alpha virt. eigenvalues --    0.19175   0.19718   0.19815   0.20240   0.22605
 Alpha virt. eigenvalues --    0.23349   0.23481   0.26771   0.27038   0.27959
 Alpha virt. eigenvalues --    0.31731   0.31913   0.32062   0.33671   0.33757
 Alpha virt. eigenvalues --    0.36362   0.38147   0.40477   0.45252   0.45342
 Alpha virt. eigenvalues --    0.47885   0.53904   0.54220   0.54806   0.57806
 Alpha virt. eigenvalues --    0.59348   0.63926   0.63942   0.64283   0.67188
 Alpha virt. eigenvalues --    0.68661   0.69351   0.71105   0.71151   0.72682
 Alpha virt. eigenvalues --    0.72959   0.73732   0.73940   0.74501   0.74937
 Alpha virt. eigenvalues --    0.76508   0.77459   0.78270   0.79028   0.79328
 Alpha virt. eigenvalues --    0.79680   0.80543   0.81079   0.82094   0.82881
 Alpha virt. eigenvalues --    0.83054   0.83592   0.85068   0.86920   0.88990
 Alpha virt. eigenvalues --    0.89276   0.90200   0.90294   0.95582   0.96834
 Alpha virt. eigenvalues --    0.97068   0.98650   0.99088   1.00878   1.01802
 Alpha virt. eigenvalues --    1.01997   1.03024   1.03839   1.05670   1.05678
 Alpha virt. eigenvalues --    1.06306   1.16949   1.17372   1.20523   1.23990
 Alpha virt. eigenvalues --    1.30089   1.31494   1.31913   1.32757   1.34809
 Alpha virt. eigenvalues --    1.35146   1.36636   1.41274   1.42243   1.43931
 Alpha virt. eigenvalues --    1.45871   1.48730   1.48842   1.50170   1.50671
 Alpha virt. eigenvalues --    1.51869   1.51912   1.52092   1.52827   1.54699
 Alpha virt. eigenvalues --    1.56500   1.58794   1.63268   1.64018   1.77152
 Alpha virt. eigenvalues --    1.78845   1.85704   1.91368   1.93347   1.93825
 Alpha virt. eigenvalues --    2.01456   2.01858   2.37440   2.45330   2.49564
 Alpha virt. eigenvalues --    2.52576
          Condensed to atoms (all electrons):
               1          2          3          4          5          6
     1  C    5.143360   0.494986  -0.081299   0.003092  -0.000143   0.000000
     2  C    0.494986   5.151960   0.404043  -0.064302   0.003352  -0.000074
     3  C   -0.081299   0.404043   5.114845   0.462668  -0.082573   0.003384
     4  C    0.003092  -0.064302   0.462668   5.193293   0.435600  -0.065769
     5  C   -0.000143   0.003352  -0.082573   0.435600   5.096244   0.435700
     6  C    0.000000  -0.000074   0.003384  -0.065769   0.435700   5.193308
     7  C   -0.014542  -0.059768   0.407982  -0.069658  -0.009664   0.000165
     8  C   -0.083585  -0.023720  -0.059765   0.004227   0.000176  -0.000001
     9  C    0.409529  -0.083604  -0.014547   0.000138   0.000008  -0.000000
    10  H    0.388652  -0.040141   0.004025  -0.000064   0.000000  -0.000000
    11  H   -0.038047   0.390794  -0.045663  -0.002450   0.000085  -0.000001
    12  H    0.000108  -0.002723  -0.042949   0.390655  -0.042927  -0.002624
    13  H    0.000000  -0.000002   0.000100  -0.002629  -0.042907   0.390662
    14  H    0.003668  -0.000139   0.003307  -0.000066   0.000003  -0.000000
    15  H   -0.039817   0.003794  -0.000103  -0.000000   0.000000   0.000000
    16  C    0.000009   0.000175  -0.009665  -0.066300   0.412384  -0.066249
    17  C   -0.000000   0.000000  -0.000147   0.003386  -0.082604   0.462629
    18  C    0.000138   0.004231  -0.069720  -0.030160  -0.066249   0.004536
    19  C   -0.000000  -0.000001   0.000166   0.004540  -0.066300  -0.030160
    20  C   -0.000000  -0.000000   0.000008   0.000166  -0.009665  -0.069720
    21  C    0.000000  -0.000000   0.000000  -0.000074   0.003351  -0.064285
    22  H    0.000008  -0.000077   0.003490  -0.000033   0.003326  -0.000075
    23  H    0.000000  -0.000000   0.000006  -0.000075   0.003328  -0.000033
    24  C   -0.000000   0.000000  -0.000000  -0.000001   0.000175   0.004231
    25  C   -0.000000   0.000000  -0.000000   0.000000  -0.000143   0.003090
    26  H    0.000000  -0.000000  -0.000000  -0.000001   0.000085  -0.002448
    27  C    0.000000  -0.000000  -0.000000  -0.000000   0.000009   0.000138
    28  H   -0.000000   0.000000   0.000000  -0.000000   0.000003  -0.000066
    29  H    0.000000  -0.000000   0.000000  -0.000000   0.000000  -0.000064
    30  H    0.000000   0.000000  -0.000000   0.000000   0.000000  -0.000000
               7          8          9         10         11         12
     1  C   -0.014542  -0.083585   0.409529   0.388652  -0.038047   0.000108
     2  C   -0.059768  -0.023720  -0.083604  -0.040141   0.390794  -0.002723
     3  C    0.407982  -0.059765  -0.014547   0.004025  -0.045663  -0.042949
     4  C   -0.069658   0.004227   0.000138  -0.000064  -0.002450   0.390655
     5  C   -0.009664   0.000176   0.000008   0.000000   0.000085  -0.042927
     6  C    0.000165  -0.000001  -0.000000  -0.000000  -0.000001  -0.002624
     7  C    5.114850   0.404050  -0.081289  -0.000103   0.003307   0.003486
     8  C    0.404050   5.151946   0.494996   0.003794  -0.000138  -0.000077
     9  C   -0.081289   0.494996   5.143348  -0.039824   0.003669   0.000008
    10  H   -0.000103   0.003794  -0.039824   0.502811  -0.004114  -0.000002
    11  H    0.003307  -0.000138   0.003669  -0.004114   0.503749   0.003813
    12  H    0.003486  -0.000077   0.000008  -0.000002   0.003813   0.505482
    13  H    0.000006  -0.000000   0.000000  -0.000000   0.000001   0.003832
    14  H   -0.045656   0.390784  -0.038042  -0.000050   0.000003   0.000001
    15  H    0.004025  -0.040148   0.388650  -0.003340  -0.000050  -0.000000
    16  C   -0.082604   0.003351  -0.000143   0.000000   0.000003   0.003328
    17  C    0.000008  -0.000000  -0.000000   0.000000  -0.000000   0.000100
    18  C    0.462629  -0.064285   0.003090  -0.000000  -0.000066  -0.000033
    19  C    0.003386  -0.000074   0.000000   0.000000  -0.000000  -0.000075
    20  C   -0.000147   0.000000  -0.000000  -0.000000   0.000000   0.000006
    21  C   -0.000000   0.000000  -0.000000  -0.000000  -0.000000  -0.000002
    22  H   -0.042969  -0.002724   0.000108  -0.000000   0.000001   0.000005
    23  H    0.000100  -0.000002   0.000000   0.000000   0.000000   0.000001
    24  C    0.000000  -0.000000   0.000000   0.000000   0.000000  -0.000000
    25  C   -0.000000  -0.000000   0.000000   0.000000   0.000000   0.000000
    26  H    0.000000   0.000000  -0.000000  -0.000000  -0.000000   0.000001
    27  C   -0.000000   0.000000  -0.000000   0.000000  -0.000000   0.000000
    28  H   -0.000000  -0.000000   0.000000  -0.000000   0.000000   0.000000
    29  H   -0.000000   0.000000   0.000000  -0.000000  -0.000000  -0.000000
    30  H    0.000000  -0.000000   0.000000   0.000000  -0.000000   0.000000
              13         14         15         16         17         18
     1  C    0.000000   0.003668  -0.039817   0.000009  -0.000000   0.000138
     2  C   -0.000002  -0.000139   0.003794   0.000175   0.000000   0.004231
     3  C    0.000100   0.003307  -0.000103  -0.009665  -0.000147  -0.069720
     4  C   -0.002629  -0.000066  -0.000000  -0.066300   0.003386  -0.030160
     5  C   -0.042907   0.000003   0.000000   0.412384  -0.082604  -0.066249
     6  C    0.390662  -0.000000   0.000000  -0.066249   0.462629   0.004536
     7  C    0.000006  -0.045656   0.004025  -0.082604   0.000008   0.462629
     8  C   -0.000000   0.390784  -0.040148   0.003351  -0.000000  -0.064285
     9  C    0.000000  -0.038042   0.388650  -0.000143  -0.000000   0.003090
    10  H   -0.000000  -0.000050  -0.003340   0.000000   0.000000  -0.000000
    11  H    0.000001   0.000003  -0.000050   0.000003  -0.000000  -0.000066
    12  H    0.003832   0.000001  -0.000000   0.003328   0.000100  -0.000033
    13  H    0.505477   0.000000   0.000000   0.003326  -0.042969  -0.000075
    14  H    0.000000   0.503755  -0.004113   0.000085   0.000000  -0.002448
    15  H    0.000000  -0.004113   0.502807   0.000000  -0.000000  -0.000064
    16  C    0.003326   0.000085   0.000000   5.096244  -0.009664   0.435700
    17  C   -0.042969   0.000000  -0.000000  -0.009664   5.114850   0.000165
    18  C   -0.000075  -0.002448  -0.000064   0.435700   0.000165   5.193308
    19  C   -0.000033  -0.000001  -0.000000   0.435600  -0.069658  -0.065769
    20  C    0.003490  -0.000000   0.000000  -0.082573   0.407982   0.003384
    21  C   -0.002724   0.000000   0.000000   0.000176   0.404050  -0.000001
    22  H    0.000001   0.003813  -0.000002  -0.042907   0.000006   0.390662
    23  H    0.000005   0.000001  -0.000000  -0.042927   0.003486  -0.002624
    24  C   -0.000077  -0.000000  -0.000000   0.003352  -0.059768  -0.000074
    25  C    0.000108  -0.000000   0.000000   0.000008  -0.081289  -0.000000
    26  H    0.003813   0.000000  -0.000000   0.000003  -0.045656  -0.000000
    27  C    0.000008   0.000000   0.000000  -0.000143  -0.014542   0.000000
    28  H    0.000001  -0.000000  -0.000000   0.000085   0.003307  -0.000001
    29  H   -0.000002  -0.000000   0.000000   0.000000   0.004025   0.000000
    30  H   -0.000000  -0.000000  -0.000000   0.000000  -0.000103  -0.000000
              19         20         21         22         23         24
     1  C   -0.000000  -0.000000   0.000000   0.000008   0.000000  -0.000000
     2  C   -0.000001  -0.000000  -0.000000  -0.000077  -0.000000   0.000000
     3  C    0.000166   0.000008   0.000000   0.003490   0.000006  -0.000000
     4  C    0.004540   0.000166  -0.000074  -0.000033  -0.000075  -0.000001
     5  C   -0.066300  -0.009665   0.003351   0.003326   0.003328   0.000175
     6  C   -0.030160  -0.069720  -0.064285  -0.000075  -0.000033   0.004231
     7  C    0.003386  -0.000147  -0.000000  -0.042969   0.000100   0.000000
     8  C   -0.000074   0.000000   0.000000  -0.002724  -0.000002  -0.000000
     9  C    0.000000  -0.000000  -0.000000   0.000108   0.000000   0.000000
    10  H    0.000000  -0.000000  -0.000000  -0.000000   0.000000   0.000000
    11  H   -0.000000   0.000000  -0.000000   0.000001   0.000000   0.000000
    12  H   -0.000075   0.000006  -0.000002   0.000005   0.000001  -0.000000
    13  H   -0.000033   0.003490  -0.002724   0.000001   0.000005  -0.000077
    14  H   -0.000001  -0.000000   0.000000   0.003813   0.000001  -0.000000
    15  H   -0.000000   0.000000   0.000000  -0.000002  -0.000000  -0.000000
    16  C    0.435600  -0.082573   0.000176  -0.042907  -0.042927   0.003352
    17  C   -0.069658   0.407982   0.404050   0.000006   0.003486  -0.059768
    18  C   -0.065769   0.003384  -0.000001   0.390662  -0.002624  -0.000074
    19  C    5.193293   0.462668   0.004227  -0.002629   0.390655  -0.064302
    20  C    0.462668   5.114845  -0.059765   0.000100  -0.042949   0.404043
    21  C    0.004227  -0.059765   5.151946  -0.000000  -0.000077  -0.023720
    22  H   -0.002629   0.000100  -0.000000   0.505477   0.003832  -0.000002
    23  H    0.390655  -0.042949  -0.000077   0.003832   0.505482  -0.002723
    24  C   -0.064302   0.404043  -0.023720  -0.000002  -0.002723   5.151960
    25  C    0.000138  -0.014547   0.494996   0.000000   0.000008  -0.083604
    26  H   -0.000066   0.003307   0.390784   0.000000   0.000001  -0.000139
    27  C    0.003092  -0.081299  -0.083585   0.000000   0.000108   0.494986
    28  H   -0.002450  -0.045663  -0.000138   0.000001   0.003813   0.390794
    29  H   -0.000000  -0.000103  -0.040148   0.000000  -0.000000   0.003794
    30  H   -0.000064   0.004025   0.003794  -0.000000  -0.000002  -0.040141
              25         26         27         28         29         30
     1  C   -0.000000   0.000000   0.000000  -0.000000   0.000000   0.000000
     2  C    0.000000  -0.000000  -0.000000   0.000000  -0.000000   0.000000
     3  C   -0.000000  -0.000000  -0.000000   0.000000   0.000000  -0.000000
     4  C    0.000000  -0.000001  -0.000000  -0.000000  -0.000000   0.000000
     5  C   -0.000143   0.000085   0.000009   0.000003   0.000000   0.000000
     6  C    0.003090  -0.002448   0.000138  -0.000066  -0.000064  -0.000000
     7  C   -0.000000   0.000000  -0.000000  -0.000000  -0.000000   0.000000
     8  C   -0.000000   0.000000   0.000000  -0.000000   0.000000  -0.000000
     9  C    0.000000  -0.000000  -0.000000   0.000000   0.000000   0.000000
    10  H    0.000000  -0.000000   0.000000  -0.000000  -0.000000   0.000000
    11  H    0.000000  -0.000000  -0.000000   0.000000  -0.000000  -0.000000
    12  H    0.000000   0.000001   0.000000   0.000000  -0.000000   0.000000
    13  H    0.000108   0.003813   0.000008   0.000001  -0.000002  -0.000000
    14  H   -0.000000   0.000000   0.000000  -0.000000  -0.000000  -0.000000
    15  H    0.000000  -0.000000   0.000000  -0.000000   0.000000  -0.000000
    16  C    0.000008   0.000003  -0.000143   0.000085   0.000000   0.000000
    17  C   -0.081289  -0.045656  -0.014542   0.003307   0.004025  -0.000103
    18  C   -0.000000  -0.000000   0.000000  -0.000001   0.000000  -0.000000
    19  C    0.000138  -0.000066   0.003092  -0.002450  -0.000000  -0.000064
    20  C   -0.014547   0.003307  -0.081299  -0.045663  -0.000103   0.004025
    21  C    0.494996   0.390784  -0.083585  -0.000138  -0.040148   0.003794
    22  H    0.000000   0.000000   0.000000   0.000001   0.000000  -0.000000
    23  H    0.000008   0.000001   0.000108   0.003813  -0.000000  -0.000002
    24  C   -0.083604  -0.000139   0.494986   0.390794   0.003794  -0.040141
    25  C    5.143348  -0.038042   0.409529   0.003669   0.388650  -0.039824
    26  H   -0.038042   0.503755   0.003668   0.000003  -0.004113  -0.000050
    27  C    0.409529   0.003668   5.143360  -0.038047  -0.039817   0.388652
    28  H    0.003669   0.000003  -0.038047   0.503749  -0.000050  -0.004114
    29  H    0.388650  -0.004113  -0.039817  -0.000050   0.502807  -0.003340
    30  H   -0.039824  -0.000050   0.388652  -0.004114  -0.003340   0.502811
 Mulliken charges:
               1
     1  C   -0.186115
     2  C   -0.178784
     3  C    0.002408
     4  C   -0.196182
     5  C    0.009346
     6  C   -0.196275
     7  C    0.002405
     8  C   -0.178804
     9  C   -0.186094
    10  H    0.188356
    11  H    0.185104
    12  H    0.180588
    13  H    0.180591
    14  H    0.185096
    15  H    0.188360
    16  C    0.009346
    17  C    0.002405
    18  C   -0.196275
    19  C   -0.196182
    20  C    0.002408
    21  C   -0.178804
    22  H    0.180591
    23  H    0.180588
    24  C   -0.178784
    25  C   -0.186094
    26  H    0.185096
    27  C   -0.186115
    28  H    0.185104
    29  H    0.188360
    30  H    0.188356
 Sum of Mulliken charges =  -0.00000
 Mulliken charges with hydrogens summed into heavy atoms:
               1
     1  C    0.002241
     2  C    0.006320
     3  C    0.002408
     4  C   -0.015594
     5  C    0.009346
     6  C   -0.015684
     7  C    0.002405
     8  C    0.006293
     9  C    0.002266
    16  C    0.009346
    17  C    0.002405
    18  C   -0.015684
    19  C   -0.015594
    20  C    0.002408
    21  C    0.006293
    24  C    0.006320
    25  C    0.002266
    27  C    0.002241
 Electronic spatial extent (au):  <R**2>=           5448.6966
 Charge=             -0.0000 electrons
 Dipole moment (field-independent basis, Debye):
    X=              0.0000    Y=              0.0000    Z=              0.0000  Tot=              0.0000
 Quadrupole moment (field-independent basis, Debye-Ang):
   XX=           -107.5530   YY=            -94.3109   ZZ=            -87.8165
   XY=             10.4207   XZ=             -3.5567   YZ=              1.2793
 Traceless Quadrupole moment (field-independent basis, Debye-Ang):
   XX=            -10.9928   YY=              2.2492   ZZ=              8.7436
   XY=             10.4207   XZ=             -3.5567   YZ=              1.2793
 Octapole moment (field-independent basis, Debye-Ang**2):
  XXX=              0.0000  YYY=              0.0000  ZZZ=              0.0000  XYY=             -0.0000
  XXY=              0.0000  XXZ=             -0.0000  XZZ=              0.0000  YZZ=              0.0000
  YYZ=             -0.0000  XYZ=             -0.0000
 Hexadecapole moment (field-independent basis, Debye-Ang**3):
 XXXX=           -833.7162 YYYY=          -1067.9372 ZZZZ=          -5020.0123 XXXY=           -368.9278
 XXXZ=            831.9705 YYYX=           -298.3813 YYYZ=            585.7928 ZZZX=            592.3343
 ZZZY=            566.0954 XXYY=           -273.2265 XXZZ=          -1096.3842 YYZZ=          -1074.0786
 XXYZ=            158.2167 YYXZ=            206.5302 ZZXY=             -7.2895
 N-N= 1.112457315910D+03 E-N=-3.820353413063D+03  KE= 6.834228938087D+02
 Symmetry AG   KE= 3.422321430789D+02
 Symmetry AU   KE= 3.411907507298D+02
 No NMR shielding tensors so no spin-rotation constants.
 Leave Link  601 at Sat Apr  4 20:32:33 2026, MaxMem=  2415919104 cpu:               0.7 elap:               0.1
 (Enter /opt/software/gaussian/g16_avx/g16/l9999.exe)
 Unable to Open any file for archive entry.
 1\1\GINC-WEE20\FOpt\RB3LYP\3-21G*\C18H12\YYB25113\04-Apr-2026\0\\#p op
 t B3LYP/3-21g*\\Molecule_TETCEN_8c\\0,1\C,-1.1137494725,-0.6141172958,
 4.7750297631\C,-0.496182673,0.2656681974,3.931860756\C,-0.4101049757,0
 .0031182421,2.5222045395\C,0.212718078,0.8822673306,1.6396373875\C,0.2
 929966011,0.6147969504,0.2565000382\C,0.921702712,1.4985216854,-0.6460
 018839\C,-0.9954451526,-1.225210636,2.0095423115\C,-1.6333574798,-2.11
 7992999,2.9366615093\C,-1.6915702713,-1.8242199848,4.2696830369\H,-1.1
 739828408,-0.4047801995,5.836970259\H,-0.058664078,1.1834451193,4.3106
 932737\H,0.6505237973,1.7989954053,2.0227375733\H,1.3591964196,2.41557
 05957,-0.2633388098\H,-2.0691827662,-3.0336285346,2.5506040585\H,-2.17
 54944318,-2.5056385836,4.9600440719\C,-0.2929966011,-0.6147969504,-0.2
 565000382\C,0.9954451526,1.225210636,-2.0095423115\C,-0.921702712,-1.4
 985216854,0.6460018839\C,-0.212718078,-0.8822673306,-1.6396373875\C,0.
 4101049757,-0.0031182421,-2.5222045395\C,1.6333574798,2.117992999,-2.9
 366615093\H,-1.3591964196,-2.4155705957,0.2633388098\H,-0.6505237973,-
 1.7989954053,-2.0227375733\C,0.496182673,-0.2656681974,-3.931860756\C,
 1.6915702713,1.8242199848,-4.2696830369\H,2.0691827662,3.0336285346,-2
 .5506040585\C,1.1137494725,0.6141172958,-4.7750297631\H,0.058664078,-1
 .1834451193,-4.3106932737\H,2.1754944318,2.5056385836,-4.9600440719\H,
 1.1739828408,0.4047801995,-5.836970259\\Version=ES64L-G16RevC.01\State
 =1-AG\HF=-689.3467452\RMSD=7.047e-09\RMSF=9.812e-05\Dipole=0.,0.,0.\Qu
 adrupole=-8.1729141,1.6722554,6.5006587,7.7475473,-2.6442915,0.9511315
 \PG=CI [X(C18H12)]\\@
 The archive entry for this job was punched.


 THE POLHOLDE ROLLS WITHOUT SLIPPING ON THE HERPOLHOLDE LYING IN
 THE INVARIABLE PLANE.
 H.GOLDSTEIN, "CLASSICAL MECHANICS", PG 161
 Job cpu time:       0 days  0 hours  7 minutes 36.7 seconds.
 Elapsed time:       0 days  0 hours  1 minutes  1.6 seconds.
 File lengths (MBytes):  RWF=     80 Int=      0 D2E=      0 Chk=      8 Scr=      8
 Normal termination of Gaussian 16 at Sat Apr  4 20:32:33 2026.
